/*--------------------------------*- C++ -*----------------------------------*\
  =========                 |
  \\      /  F ield         | OpenFOAM: The Open Source CFD Toolbox
   \\    /   O peration     | Website:  https://openfoam.org
    \\  /    A nd           | Version:  13
     \\/     M anipulation  |
\*---------------------------------------------------------------------------*/
FoamFile
{
    format      ascii;
    class       volScalarField;
    location    "6.2";
    object      T;
}
// * * * * * * * * * * * * * * * * * * * * * * * * * * * * * * * * * * * * * //

dimensions      [0 0 0 1 0 0 0];

internalField   nonuniform List<scalar> 
10000
(
7.00201e-61
1.39211e-61
-3.38121e-61
-4.49595e-61
3.94842e-60
2.025e-59
2.44704e-59
-1.32199e-58
-6.1478e-58
-5.40688e-58
3.4561e-57
1.27925e-56
9.32541e-57
-5.37685e-56
-1.76176e-55
-1.27114e-55
3.50179e-55
1.01094e-55
-1.30104e-54
9.3949e-54
3.59416e-53
9.06971e-53
2.80775e-52
-2.51213e-51
-8.44629e-51
3.75543e-50
1.55656e-50
-5.55313e-49
1.42549e-48
5.25192e-48
-2.91728e-47
-1.30651e-47
3.58021e-46
-3.95865e-46
-3.23407e-45
7.81727e-45
2.36219e-44
-9.10686e-44
-1.47782e-43
8.48512e-43
9.00047e-43
-6.87905e-42
-6.31051e-42
5.01825e-41
5.44055e-41
-3.28318e-40
-5.08472e-40
1.84037e-39
4.4495e-39
-7.71507e-39
-3.34386e-38
1.06492e-38
2.00041e-37
1.86658e-37
-8.19387e-37
-2.13693e-36
8.94359e-37
1.19676e-35
1.61032e-35
-2.70496e-35
-1.24069e-34
-1.23637e-34
2.81962e-34
1.11614e-33
1.30422e-33
-1.4516e-33
-8.39625e-33
-1.48112e-32
-6.41332e-33
3.51225e-32
1.12015e-31
1.81827e-31
1.42101e-31
-1.45791e-31
-7.86095e-31
-1.76002e-30
-2.87572e-30
-3.80646e-30
-4.21881e-30
-3.93084e-30
-3.00993e-30
-1.74965e-30
-5.36692e-31
3.17567e-31
6.90347e-31
6.56389e-31
4.05446e-31
1.30572e-31
-5.00984e-32
-1.11265e-31
-9.02427e-32
-4.11674e-32
-2.05766e-33
1.45281e-32
1.39011e-32
6.7688e-33
7.4639e-34
-1.891e-33
-2.32627e-33
-2.24894e-33
7.85778e-62
-1.72132e-60
-1.25801e-60
1.02497e-59
2.78424e-59
1.85888e-60
-8.2719e-59
-7.56629e-59
-2.24372e-58
-1.99805e-57
-4.10301e-57
3.98276e-57
1.64753e-56
-3.94339e-56
-1.31849e-55
4.76739e-55
3.03013e-54
5.32387e-54
-2.40994e-54
-1.45628e-53
6.00151e-53
3.97994e-52
6.58942e-52
-2.30393e-51
-1.01237e-50
6.21858e-51
3.03122e-50
-9.50184e-50
7.27485e-49
2.00779e-48
-1.21428e-47
-9.94805e-48
1.29761e-46
-1.24038e-46
-1.14404e-45
3.00298e-45
9.05165e-45
-3.3786e-44
-5.64038e-44
3.15502e-43
3.40581e-43
-2.57912e-42
-2.42991e-42
1.86793e-41
2.03091e-41
-1.23434e-40
-1.91891e-40
6.89301e-40
1.66941e-39
-2.8974e-39
-1.25286e-38
4.13534e-39
7.52043e-38
6.90996e-38
-3.1032e-37
-8.00417e-37
3.57306e-37
4.52375e-36
5.98209e-36
-1.0447e-35
-4.68133e-35
-4.5328e-35
1.09545e-34
4.22077e-34
4.78834e-34
-5.86236e-34
-3.2087e-33
-5.52824e-33
-2.07458e-33
1.40084e-32
4.31348e-32
6.83046e-32
4.93345e-32
-6.7671e-32
-3.22728e-31
-7.07531e-31
-1.14634e-30
-1.51135e-30
-1.67271e-30
-1.55927e-30
-1.19683e-30
-7.01227e-31
-2.23716e-31
1.15235e-31
2.65433e-31
2.55697e-31
1.59976e-31
5.33517e-32
-1.76175e-32
-4.23706e-32
-3.49719e-32
-1.626e-32
-1.13286e-33
5.40892e-33
5.31601e-33
2.65008e-33
3.37732e-34
-7.02361e-34
-8.81453e-34
-8.53432e-34
-2.05392e-61
-1.98083e-60
1.26791e-60
1.7611e-59
4.85318e-60
-1.59267e-58
-2.13426e-58
1.42078e-57
5.15195e-57
-1.2946e-57
-4.59615e-56
-1.11504e-55
-2.61092e-56
4.50138e-55
1.19349e-54
1.70346e-54
3.38739e-54
1.26065e-53
1.71429e-53
-1.08517e-52
-5.38914e-52
-4.19516e-52
3.59602e-51
1.20607e-50
9.38693e-51
-2.31455e-50
-1.05818e-49
-2.88757e-49
1.26487e-49
1.29168e-48
-4.76636e-48
-8.3299e-49
6.83701e-47
-1.34052e-46
-7.61268e-46
1.92717e-45
5.78365e-45
-2.08773e-44
-3.68887e-44
1.88102e-43
2.14995e-43
-1.54079e-42
-1.534e-42
1.09564e-41
1.17265e-41
-7.46775e-41
-1.14626e-40
4.20511e-40
1.01586e-39
-1.75903e-39
-7.64153e-39
2.45372e-39
4.59237e-38
4.30936e-38
-1.86332e-37
-4.81424e-37
2.30755e-37
2.76593e-36
3.59801e-36
-6.52385e-36
-2.86575e-35
-2.72894e-35
6.77206e-35
2.5762e-34
2.9007e-34
-3.56914e-34
-1.93547e-33
-3.30317e-33
-1.15385e-33
8.57133e-33
2.59205e-32
4.05113e-32
2.82851e-32
-4.32169e-32
-1.98668e-31
-4.33033e-31
-6.9933e-31
-9.20241e-31
-1.01863e-30
-9.50245e-31
-7.2874e-31
-4.2672e-31
-1.37627e-31
6.77707e-32
1.6013e-31
1.55883e-31
9.80322e-32
3.26346e-32
-1.06529e-32
-2.56422e-32
-2.1346e-32
-9.86437e-33
-6.88769e-34
3.26096e-33
3.21682e-33
1.60479e-33
2.11956e-34
-4.2031e-34
-5.30424e-34
-5.10888e-34
6.01415e-61
1.14576e-59
1.71429e-59
-5.08704e-59
-2.80975e-58
-4.92862e-58
4.24028e-58
5.32555e-57
1.5579e-56
9.72994e-57
-8.33419e-56
-2.64667e-55
-4.49701e-56
1.49411e-54
3.0552e-54
-2.79078e-54
-1.94549e-53
-4.33934e-54
1.0033e-52
-1.13559e-52
-2.12413e-51
-5.24833e-51
4.20188e-51
4.93957e-50
9.2934e-50
-5.64938e-50
-6.3477e-49
-1.49603e-48
-1.31239e-48
3.11044e-48
1.54553e-47
3.97051e-47
2.67099e-47
-3.3473e-46
-1.07448e-45
1.79302e-46
3.0061e-45
-9.95244e-45
-2.70463e-44
6.90686e-44
1.52723e-43
-4.62513e-43
-5.00255e-43
4.61212e-42
5.80737e-42
-2.75822e-41
-3.9941e-41
1.93196e-40
4.52061e-40
-7.79552e-40
-3.53154e-39
4.62698e-40
1.96626e-38
2.14987e-38
-7.06546e-38
-1.88731e-37
1.14544e-37
1.13094e-36
1.26775e-36
-3.292e-36
-1.22836e-35
-9.63787e-36
3.37886e-35
1.14304e-34
1.18988e-34
-1.73751e-34
-8.51138e-34
-1.36166e-33
-2.06397e-34
4.23952e-33
1.14267e-32
1.63187e-32
8.96998e-33
-2.3833e-32
-9.34481e-32
-1.98227e-31
-3.15622e-31
-4.10277e-31
-4.49246e-31
-4.16079e-31
-3.20562e-31
-1.89298e-31
-6.21767e-32
2.323e-32
6.69645e-32
7.05519e-32
4.5535e-32
1.46656e-32
-4.87186e-33
-1.11019e-32
-9.67858e-33
-4.51339e-33
-3.2713e-34
1.63097e-33
1.59612e-33
7.11966e-34
6.09873e-35
-1.84477e-34
-2.57035e-34
-2.5158e-34
1.24426e-60
4.46812e-59
6.81254e-59
-1.6913e-58
-7.92649e-58
-9.38961e-58
4.77338e-58
2.42881e-57
1.17032e-56
6.35193e-56
1.66929e-55
1.83886e-55
1.32887e-55
5.83544e-55
-1.36769e-54
-2.29883e-53
-8.52034e-53
-1.12257e-52
1.93788e-52
7.82823e-52
-1.13091e-51
-1.12883e-50
-2.03977e-50
2.65935e-50
1.56967e-49
6.77693e-50
-9.13199e-49
-2.28886e-48
1.76233e-49
1.21975e-47
3.39102e-47
7.03682e-47
9.98952e-47
-2.41778e-46
-1.76734e-45
-3.87936e-45
-3.82943e-45
-4.82764e-45
-1.02008e-44
2.50493e-44
1.48752e-43
2.6928e-43
8.62138e-43
4.05603e-42
9.26572e-42
7.476e-42
6.91758e-42
6.06274e-41
1.05943e-40
-2.64247e-40
-1.11005e-39
-6.7994e-40
2.54318e-39
2.78907e-39
-9.99733e-39
-2.56301e-38
-1.50795e-38
-2.33209e-38
-2.44939e-37
-7.58344e-37
-7.57385e-37
2.28929e-36
1.19861e-35
2.57194e-35
1.26172e-35
-1.05967e-34
-3.80891e-34
-5.7445e-34
6.67543e-35
2.41088e-33
6.15016e-33
8.56821e-33
5.14572e-33
-8.23389e-33
-3.45431e-32
-7.52069e-32
-1.25507e-31
-1.66842e-31
-1.73087e-31
-1.48611e-31
-1.22828e-31
-7.82078e-32
-1.83262e-32
5.33708e-33
2.12748e-32
2.51737e-32
1.5656e-32
5.42097e-33
-1.0347e-33
-3.30346e-33
-3.20119e-33
-2.50943e-33
-5.53968e-34
1.11837e-33
1.07788e-33
3.37377e-34
-8.01559e-35
-9.6444e-35
-1.82672e-34
-2.12988e-34
-4.56307e-60
3.48269e-59
9.95208e-59
1.00483e-58
1.65494e-58
1.40373e-58
-6.88831e-57
-4.02096e-56
-7.14926e-56
1.59635e-55
1.08252e-54
2.05419e-54
-2.4613e-55
-8.74867e-54
-1.86803e-53
-2.97467e-53
-1.02632e-52
-3.55341e-52
-2.87151e-52
3.34702e-51
1.47119e-50
1.33955e-50
-8.3779e-50
-3.13927e-49
-2.68552e-49
9.18796e-49
3.12747e-48
5.00259e-48
8.12518e-48
6.0785e-48
-4.83505e-47
-1.13177e-46
3.82249e-46
2.01002e-45
1.58801e-45
-9.77806e-45
-2.88209e-44
-5.44043e-45
1.20008e-43
2.1368e-43
-1.34251e-43
-8.10633e-43
3.57988e-43
7.26019e-42
2.07698e-41
3.1263e-41
4.54984e-42
-1.40574e-40
-3.97928e-40
-5.31584e-41
2.28185e-39
4.23979e-39
-5.52712e-39
-3.16723e-38
-4.24477e-38
-2.49861e-38
-1.15408e-37
-3.29875e-37
3.39395e-37
3.56515e-36
7.06713e-36
-2.97087e-37
-2.80703e-35
-5.8617e-35
-6.29047e-35
-9.27982e-35
-3.1386e-34
-8.26298e-34
-1.25045e-33
1.27114e-34
6.37024e-33
1.72167e-32
2.41057e-32
1.98254e-32
1.03547e-32
-6.6652e-33
-5.81892e-32
-1.4119e-31
-1.93932e-31
-1.88373e-31
-1.53003e-31
-7.80277e-32
1.08687e-32
4.12563e-32
2.83888e-32
4.04972e-34
-1.11233e-32
3.95694e-33
6.28072e-33
-9.72289e-34
6.43177e-34
-3.08494e-33
-1.69703e-33
-1.28792e-34
-8.43309e-36
3.16784e-34
8.28697e-35
-3.58921e-35
-4.66996e-36
-6.31623e-35
1.54753e-59
-1.58636e-58
-5.04125e-58
1.86055e-58
5.45535e-57
1.55522e-56
2.13816e-57
-1.22743e-55
-3.88683e-55
-2.42789e-55
1.59772e-54
3.68359e-54
-4.27859e-54
-2.89344e-53
-2.26118e-53
1.17511e-52
2.50636e-52
-6.08197e-52
-2.92939e-51
3.77164e-51
5.39034e-50
1.35423e-49
-6.42297e-50
-1.0911e-48
-1.86518e-48
3.06905e-48
1.85105e-47
3.01903e-47
-2.6178e-48
-1.24917e-46
-3.87909e-46
-6.718e-46
4.32503e-46
6.23716e-45
1.43899e-44
2.71944e-45
-3.96439e-44
1.54772e-44
4.08474e-43
6.99274e-43
-1.22807e-42
-6.95605e-42
-1.13058e-41
-3.35136e-42
1.64588e-41
2.10549e-41
-7.24356e-41
-4.94923e-40
-1.3231e-39
-6.90592e-40
6.70777e-39
2.20481e-38
2.15716e-38
-5.08545e-38
-2.25015e-37
-3.36033e-37
2.41144e-37
2.52214e-36
6.19306e-36
6.04964e-36
-8.1884e-36
-4.13615e-35
-7.6591e-35
-8.1887e-35
-6.92977e-35
-1.445e-34
-4.70573e-34
-1.42889e-33
-3.6094e-33
-5.00032e-33
2.30391e-33
2.19669e-32
3.67379e-32
3.08409e-32
2.80691e-32
3.33341e-32
-3.79151e-32
-2.51536e-31
-5.27269e-31
-6.5564e-31
-4.68873e-31
-1.64175e-31
1.35343e-32
1.35527e-31
1.09958e-31
2.71484e-32
-1.0874e-32
1.64873e-32
1.24818e-32
-1.30421e-32
-3.06349e-33
-2.72839e-33
-8.10572e-34
-4.1923e-33
-3.83895e-33
3.44515e-34
1.0882e-33
2.05025e-34
9.02394e-34
1.00711e-33
1.81688e-58
-5.36617e-58
-2.9891e-57
-4.34061e-57
9.8825e-57
6.46549e-56
1.43667e-55
2.56177e-56
-8.09083e-55
-2.39375e-54
-3.11803e-54
-4.15e-54
-1.78576e-53
-3.25285e-53
1.08676e-52
6.86006e-52
1.3637e-51
-3.48159e-52
-8.35715e-51
-1.16461e-50
6.06794e-50
3.02201e-49
3.65389e-49
-1.05987e-48
-3.59904e-48
2.72256e-48
3.25964e-47
5.106e-47
-7.85924e-47
-4.27747e-46
-7.20524e-46
-8.73652e-46
-1.74599e-45
-6.26836e-46
1.89879e-44
7.94411e-44
1.64406e-43
2.14482e-43
2.17189e-43
-1.49161e-43
-3.14062e-42
-1.36158e-41
-3.34662e-41
-5.50562e-41
-6.88022e-41
-7.58025e-41
-1.19417e-40
-4.06137e-40
-1.22807e-39
-1.63104e-39
4.63731e-39
3.27397e-38
8.10671e-38
3.25923e-38
-3.58893e-37
-7.81279e-37
1.04525e-36
7.9167e-36
1.34524e-35
-5.89897e-36
-6.21719e-35
-9.28304e-35
1.12879e-35
1.9468e-34
1.55457e-34
-1.27684e-34
1.53223e-34
1.37015e-33
6.74823e-34
-7.22989e-33
-2.4083e-32
-4.75322e-32
-7.65501e-32
-9.3431e-32
-4.11164e-32
1.13681e-31
2.87833e-31
2.72767e-31
-1.29249e-31
-5.87209e-31
-4.14116e-31
-8.36803e-32
-1.25828e-31
4.52009e-32
1.2576e-31
1.31764e-31
9.81657e-32
3.0418e-32
-2.01538e-32
-4.02297e-32
-1.73619e-32
1.25238e-32
9.82223e-33
-7.492e-33
-6.87393e-33
-1.84807e-34
2.00151e-33
5.20283e-34
2.1893e-33
2.72506e-33
2.12736e-58
-8.99941e-58
-3.62995e-57
-6.61944e-57
-6.78519e-57
2.65067e-56
2.61856e-55
9.63139e-55
1.38038e-54
-2.55841e-54
-1.77504e-53
-4.33608e-53
-4.36739e-53
1.04788e-52
6.48041e-52
1.71551e-51
2.75266e-51
2.52109e-51
-4.90564e-51
-5.36958e-50
-1.87292e-49
-1.10059e-49
1.33606e-48
4.37805e-48
1.99999e-48
-1.92157e-47
-5.24458e-47
-6.64729e-47
-9.7443e-47
-1.132e-46
6.07925e-46
1.56748e-45
-7.45764e-45
-4.18989e-44
-5.00785e-44
1.77993e-43
7.21033e-43
5.88999e-43
-2.10897e-42
-5.88312e-42
-2.70703e-42
8.61614e-42
-6.2808e-43
-8.76713e-41
-3.21278e-40
-6.69177e-40
-3.92817e-40
2.52691e-39
8.17811e-39
5.91304e-39
-2.16953e-38
-5.11435e-38
2.16054e-38
2.19883e-37
1.67255e-37
-4.47468e-37
-4.68961e-39
3.76245e-36
1.34133e-36
-3.58035e-35
-9.5985e-35
-6.39734e-36
4.84781e-34
1.20977e-33
1.45368e-33
1.44494e-33
4.05708e-33
1.23873e-32
2.07376e-32
2.57412e-33
-8.07713e-32
-2.1702e-31
-3.01854e-31
-2.66636e-31
-1.69528e-31
1.15011e-31
1.04506e-30
2.5429e-30
3.38325e-30
2.8418e-30
1.80228e-30
5.30473e-31
-6.30854e-31
-6.41201e-31
-3.38408e-31
3.70722e-32
2.16174e-31
-7.36841e-32
-1.52902e-31
-2.68989e-32
-1.7832e-32
5.19516e-32
2.57794e-32
3.23705e-33
5.35008e-33
-1.82086e-33
-1.56226e-33
-4.18067e-34
-8.75076e-34
-4.30072e-34
-1.85132e-57
-1.56234e-57
1.85206e-56
6.00726e-56
-2.88592e-56
-6.06855e-55
-1.24026e-54
1.671e-54
1.25068e-53
1.76946e-53
-2.72688e-53
-1.08448e-52
3.36311e-53
7.12784e-52
1.29647e-51
1.11514e-52
-2.43486e-52
1.70954e-50
5.50273e-50
-9.4293e-50
-1.05995e-48
-2.41163e-48
2.2e-48
2.21385e-47
2.94776e-47
-9.26557e-47
-4.18136e-46
-5.59387e-46
3.61134e-46
2.65276e-45
5.75032e-45
8.07148e-45
-7.32958e-45
-8.9445e-44
-2.13235e-43
-4.85112e-44
5.54458e-43
-4.32575e-43
-6.59951e-42
-1.15651e-41
1.3407e-41
9.62952e-41
2.02158e-40
1.22203e-40
-7.73832e-40
-2.9806e-39
-2.70062e-39
1.21003e-38
4.3289e-38
3.56545e-38
-1.12513e-37
-3.6958e-37
-3.48432e-37
5.3215e-37
2.08363e-36
1.72043e-36
-5.9416e-36
-2.49195e-35
-5.03408e-35
-6.42952e-35
-8.44804e-36
3.45056e-34
1.47376e-33
3.51972e-33
5.33039e-33
5.83084e-33
8.43138e-33
2.05024e-32
3.55701e-32
4.73199e-33
-1.21064e-31
-2.07136e-31
1.82994e-32
2.68042e-31
-4.20295e-31
-1.83498e-30
-1.59629e-30
1.96591e-30
6.83261e-30
8.75438e-30
5.80395e-30
1.09505e-30
-1.11797e-30
-1.15232e-30
-1.02014e-30
-8.78113e-31
-3.26692e-31
-4.86296e-31
-3.25897e-31
9.94278e-32
-2.90159e-33
2.88238e-32
7.57597e-34
3.71602e-32
3.9593e-32
-5.19357e-33
-1.19976e-32
-4.37883e-33
-1.744e-32
-1.84324e-32
-7.30572e-57
-1.54172e-57
7.66805e-56
2.50246e-55
8.32946e-56
-1.7941e-54
-5.7105e-54
-3.84003e-54
1.93386e-53
4.77959e-53
1.71422e-53
7.78986e-53
8.81452e-52
1.88244e-51
-2.66162e-51
-1.85287e-50
-2.1289e-50
6.46649e-50
2.31679e-49
-8.43437e-50
-2.30676e-48
-5.68408e-48
2.22454e-48
4.13805e-47
6.2161e-47
-1.67302e-46
-8.12654e-46
-1.04761e-45
1.09206e-45
5.66331e-45
8.95326e-45
1.23607e-44
2.3795e-44
6.51868e-45
-1.91842e-43
-8.41383e-43
-2.30751e-42
-4.67325e-42
-5.42674e-42
6.40038e-42
5.96262e-41
2.0964e-40
4.86475e-40
5.20891e-40
-1.22826e-39
-6.12806e-39
-6.45369e-39
2.20223e-38
8.12879e-38
5.46134e-38
-2.82104e-37
-9.0441e-37
-9.38596e-37
1.51072e-36
7.32334e-36
9.26838e-36
-1.56387e-35
-8.71627e-35
-1.53426e-34
-5.78703e-35
3.19386e-34
9.88672e-34
2.26933e-33
4.67286e-33
6.67675e-33
3.91042e-33
-4.32844e-33
-9.54234e-33
-8.53434e-33
-1.94651e-32
6.47433e-33
3.69017e-31
1.25332e-30
1.45369e-30
-1.5308e-30
-8.21823e-30
-1.48303e-29
-1.50675e-29
-5.2823e-30
6.94211e-30
8.39651e-30
3.32881e-30
1.92601e-30
1.13435e-30
2.52115e-31
-2.52559e-30
-2.4035e-30
-9.46531e-31
2.42526e-32
3.4809e-31
-6.15137e-32
-2.5915e-31
-1.08079e-31
7.28119e-32
6.12201e-32
-1.46452e-32
-1.77579e-32
-8.31664e-33
-4.35672e-32
-4.44344e-32
-2.42832e-57
1.1883e-56
3.34145e-56
6.97679e-56
3.34822e-55
9.83853e-55
-1.02765e-54
-1.83691e-53
-6.93882e-53
-1.20074e-52
1.07316e-52
1.33826e-51
3.58701e-51
8.99839e-52
-2.3036e-50
-7.08455e-50
-6.77098e-50
1.06482e-49
3.00554e-49
9.07599e-51
-3.00646e-49
1.35912e-48
7.73903e-49
-2.14074e-47
-5.97589e-47
3.63758e-47
5.56051e-46
1.24378e-45
-8.10159e-47
-6.78851e-45
-1.49283e-44
2.42262e-45
1.03778e-43
3.39811e-43
4.85369e-43
-4.45698e-43
-2.82891e-42
-1.19216e-42
1.33346e-41
3.36417e-41
6.6531e-41
2.24579e-40
4.82728e-40
1.47199e-40
-9.61313e-40
-4.91328e-40
-1.23135e-40
-1.48827e-38
-4.56192e-38
-5.59173e-38
-1.54758e-37
-7.45874e-37
-1.16808e-36
3.46274e-36
1.91202e-35
2.83814e-35
-3.82267e-35
-2.29978e-34
-3.25749e-34
2.3229e-34
1.4493e-33
1.31245e-33
-3.24339e-33
-1.05113e-32
-1.02554e-32
7.56981e-34
-1.12481e-32
-9.67289e-32
-1.99722e-31
-7.47117e-32
4.51989e-31
1.01668e-30
1.09227e-30
1.41201e-30
3.42469e-30
4.77645e-30
-8.13307e-31
-9.39319e-30
-1.14746e-30
2.56963e-29
4.10114e-29
3.62219e-29
2.2061e-29
6.31098e-30
2.65533e-30
-5.09084e-30
-7.49046e-30
-1.62198e-30
1.72391e-30
1.04006e-30
2.523e-31
-3.81707e-31
-5.4252e-32
8.06168e-32
1.30993e-32
-5.65862e-32
-2.15268e-32
-8.79087e-33
-2.97797e-32
-2.50791e-32
5.18155e-56
5.47289e-56
-5.2221e-55
-1.94883e-54
-7.48648e-56
1.78773e-53
4.94671e-53
-5.92922e-54
-3.60121e-52
-8.60867e-52
-1.06003e-52
3.45256e-51
5.30847e-51
-9.68115e-51
-4.91226e-50
-7.76815e-50
-7.04679e-50
-2.57967e-49
-9.11378e-49
6.39859e-49
1.43454e-47
3.89666e-47
-1.12188e-47
-3.06528e-46
-5.99592e-46
7.1339e-46
5.54775e-45
9.69331e-45
-3.12082e-45
-4.50039e-44
-8.0325e-44
-1.53779e-44
2.03939e-43
5.14747e-43
1.35818e-42
5.6464e-42
1.81497e-41
3.16847e-41
9.15322e-42
-7.46499e-41
-1.08531e-40
1.03608e-40
3.32852e-40
7.95208e-41
1.14741e-39
5.39548e-39
-9.14598e-39
-1.09615e-37
-3.33944e-37
-4.83721e-37
1.90609e-37
3.2654e-36
9.41092e-36
1.13391e-35
-9.87361e-36
-5.91137e-35
-8.244e-35
1.54357e-35
2.62615e-34
3.95431e-34
-9.52712e-34
-7.27599e-33
-1.96501e-32
-2.10898e-32
1.91631e-32
5.11407e-32
-1.56014e-31
-7.03906e-31
-7.52419e-31
1.41338e-30
5.65292e-30
6.88071e-30
-5.60021e-31
-1.03845e-29
-3.95911e-30
2.39001e-29
4.5482e-29
2.93586e-29
-5.90333e-30
-4.89117e-30
3.55899e-29
5.93785e-29
3.90711e-29
1.83232e-29
2.35988e-29
1.69074e-29
-5.48723e-32
-2.82257e-32
1.73987e-30
-2.01261e-30
-1.68489e-30
-3.69364e-31
5.49932e-31
6.72399e-31
4.94629e-31
1.59433e-31
-3.52865e-32
-9.49987e-32
-6.52915e-33
-2.5397e-33
1.53365e-55
2.02179e-56
-1.72169e-54
-5.46716e-54
-1.01744e-54
4.28948e-53
1.35459e-52
1.01291e-52
-4.77034e-52
-1.49201e-51
-1.27553e-51
-2.05767e-52
-8.88907e-51
-2.75878e-50
3.08969e-50
2.75183e-49
2.13256e-49
-1.69879e-48
-4.79733e-48
2.35332e-48
3.90361e-47
7.63029e-47
-6.14161e-47
-5.79419e-46
-9.73538e-46
7.38608e-46
6.27863e-45
1.18028e-44
5.57385e-45
-2.14134e-44
-5.45861e-44
-4.80875e-44
-2.80043e-45
-2.61527e-44
1.60811e-42
1.47755e-41
4.88791e-41
4.33327e-41
-1.74551e-40
-5.50554e-40
-2.42649e-40
1.50495e-39
2.54866e-39
-1.90002e-39
-1.29807e-38
-2.97901e-38
-7.05061e-38
-1.86266e-37
-4.08804e-37
-2.64101e-37
3.04471e-36
1.51444e-35
3.01521e-35
-1.32726e-36
-1.42086e-34
-2.60286e-34
9.36052e-35
9.68757e-34
8.54699e-34
-2.19392e-33
-7.31899e-33
-1.21565e-32
-1.47532e-32
6.32858e-35
4.35474e-32
-1.53608e-32
-4.35952e-31
-6.62537e-31
2.00282e-30
1.02102e-29
1.85299e-29
8.49756e-30
-3.95897e-29
-1.23639e-28
-2.10537e-28
-2.55551e-28
-2.58441e-28
-3.19707e-28
-5.15679e-28
-6.69801e-28
-5.73617e-28
-3.63018e-28
-1.83667e-28
-2.51552e-30
8.60767e-29
1.15065e-28
7.11799e-29
2.79264e-29
4.07173e-30
-1.29101e-29
-1.35146e-29
-5.52969e-30
-1.574e-30
1.41623e-30
2.0086e-30
1.44934e-30
4.19534e-31
-1.20042e-31
-9.30475e-32
-1.46013e-31
8.41351e-56
-4.74537e-55
-1.62459e-54
-8.88251e-55
4.4924e-54
4.23307e-54
-6.6912e-55
1.72203e-52
9.7274e-52
1.91197e-51
-2.07446e-51
-2.22523e-50
-5.57488e-50
-1.10559e-50
3.67677e-49
1.1954e-48
1.33437e-48
-1.69832e-48
-6.16181e-48
-2.62501e-48
-5.88398e-48
-8.63195e-47
-1.48527e-46
4.92589e-46
1.84055e-45
-1.9347e-45
-2.1443e-44
-3.73951e-44
4.26543e-44
2.8263e-43
4.22989e-43
-2.20595e-43
-1.7406e-42
-7.59922e-43
5.77795e-42
-3.36172e-42
-5.9394e-41
-1.33083e-40
-4.53454e-40
-1.54823e-39
-1.88256e-40
1.14205e-38
1.38334e-38
-5.70634e-38
-1.26559e-37
1.56797e-37
4.3984e-37
-1.2766e-36
-3.20655e-36
8.89005e-36
3.86928e-35
1.45796e-35
-1.5794e-34
-2.39107e-34
4.83466e-34
1.75727e-33
-5.78064e-35
-9.04108e-33
-1.47075e-32
1.891e-32
1.07078e-31
1.22954e-31
-2.25049e-31
-9.84229e-31
-1.14854e-30
1.53887e-30
8.54977e-30
1.60159e-29
1.0635e-29
-2.81528e-29
-1.10757e-28
-1.98374e-28
-1.73835e-28
1.10481e-28
7.36076e-28
1.69724e-27
2.86736e-27
3.81055e-27
3.9398e-27
3.23673e-27
2.20298e-27
1.07817e-27
1.86598e-28
-2.58262e-28
-6.11507e-28
-5.85078e-28
-3.57128e-28
-1.31915e-28
3.19185e-29
9.43113e-29
7.82587e-29
3.80624e-29
1.03862e-30
-1.23018e-29
-1.3234e-29
-5.74841e-30
-2.02314e-31
2.01758e-30
1.99829e-30
1.79959e-30
-6.00265e-55
-1.30945e-54
5.45803e-54
2.86857e-53
1.81674e-53
-2.35723e-52
-8.1599e-52
-3.06056e-52
5.01098e-51
1.41328e-50
5.34341e-51
-5.05305e-50
-9.53755e-50
7.66099e-50
5.86841e-49
1.45588e-48
4.20181e-48
1.22879e-47
1.71498e-47
-4.20354e-47
-2.95922e-46
-6.91107e-46
-1.08831e-46
3.95695e-45
9.72684e-45
-3.31669e-45
-6.88282e-44
-1.37827e-43
5.97685e-44
7.17738e-43
9.97312e-43
-3.57202e-43
-1.96396e-42
-3.45291e-42
-1.21834e-41
-4.81034e-41
-2.68239e-40
-9.2809e-40
-7.71402e-40
3.43846e-39
5.46388e-39
-1.55509e-38
-2.65484e-38
9.00776e-38
1.28729e-37
-6.53162e-37
-1.03913e-36
4.8349e-36
1.56457e-35
-4.39533e-37
-6.91001e-35
-6.90659e-35
2.41267e-34
5.70413e-34
-5.43955e-34
-3.59863e-33
-2.17971e-33
1.66879e-32
4.63778e-32
1.88433e-32
-1.6197e-31
-4.04325e-31
-1.67145e-31
1.32956e-30
4.06471e-30
5.85891e-30
1.2167e-30
-1.9681e-29
-6.70999e-29
-1.30051e-28
-1.29625e-28
1.28868e-28
9.19584e-28
2.37397e-27
4.21517e-27
5.88912e-27
7.13353e-27
8.16703e-27
8.9461e-27
8.71014e-27
7.02927e-27
4.68518e-27
2.80682e-27
1.34377e-27
-1.05154e-28
-8.75846e-28
-8.50016e-28
-6.16672e-28
-3.20433e-28
-4.14804e-29
9.8387e-29
1.01579e-28
6.8065e-29
2.52606e-29
-8.53755e-30
-1.49682e-29
-9.75523e-30
-3.31496e-30
-2.01647e-30
-1.6682e-30
-1.92778e-54
5.02119e-55
2.49285e-53
6.84988e-53
-2.7746e-53
-6.74618e-52
-1.86373e-51
-9.73982e-52
8.28756e-51
2.62329e-50
2.7729e-50
-8.26216e-51
1.37145e-50
1.07909e-49
-6.33368e-49
-2.18503e-48
6.83847e-48
4.91406e-47
8.52497e-47
-1.03253e-46
-7.28922e-46
-1.21968e-45
2.30235e-46
4.59434e-45
8.49411e-45
9.8225e-45
1.68072e-44
-3.43167e-45
-1.72417e-43
-5.48802e-43
-9.12191e-43
2.14648e-42
1.42494e-41
-7.63506e-42
-1.44505e-40
-1.2874e-40
1.80879e-40
-1.2169e-39
-5.18152e-40
2.20931e-38
2.34948e-38
-1.62492e-37
-2.32716e-37
9.86278e-37
1.78928e-36
-5.07338e-36
-1.01598e-35
3.4221e-35
9.50142e-35
-1.22948e-34
-6.58898e-34
2.77058e-36
3.38174e-33
3.28581e-33
-1.43824e-32
-3.55301e-32
2.71425e-32
2.32309e-31
2.68112e-31
-6.31934e-31
-2.40864e-30
-1.72494e-30
7.28653e-30
2.26269e-29
1.82206e-29
-5.13323e-29
-1.90954e-28
-2.65002e-28
3.80656e-29
1.03095e-27
2.56933e-27
3.42618e-27
9.27405e-28
-8.56794e-27
-2.81351e-26
-5.7897e-26
-9.2287e-26
-1.19658e-25
-1.28718e-25
-1.17378e-25
-9.10871e-26
-5.60811e-26
-2.13708e-26
3.48805e-27
1.60695e-26
1.70567e-26
1.19019e-26
4.97238e-27
-2.65535e-28
-2.38712e-27
-2.2145e-27
-1.21448e-27
-2.256e-28
2.51529e-28
3.09095e-28
1.72147e-28
3.4824e-29
-3.22135e-29
-5.06089e-29
-5.01798e-29
-2.24225e-54
9.40163e-54
4.15035e-53
1.86691e-53
-2.69841e-52
-7.39591e-52
-2.8315e-52
1.88869e-51
2.81928e-51
2.30609e-51
2.82445e-50
1.42759e-49
3.23637e-49
-3.99737e-50
-3.08122e-48
-1.01918e-47
-7.95026e-48
4.11215e-47
1.23073e-46
4.786e-47
-2.32519e-46
9.71123e-47
5.09855e-46
-7.54471e-45
-2.7748e-44
2.34632e-44
3.9102e-43
8.69961e-43
-1.11202e-42
-7.37431e-42
-3.47971e-42
1.96679e-41
4.21792e-42
2.78667e-41
1.28893e-40
-1.4416e-39
-2.58657e-39
1.58499e-38
3.28833e-38
-8.92299e-38
-1.58698e-37
7.06098e-37
9.42314e-37
-5.18903e-36
-6.87579e-36
3.61286e-35
6.81054e-35
-1.8565e-34
-5.56295e-34
6.48384e-34
3.83448e-33
1.90631e-34
-2.14643e-32
-2.89848e-32
7.19927e-32
2.52463e-31
3.65209e-32
-1.15168e-30
-2.15209e-30
1.35372e-30
1.21038e-29
1.81547e-29
-1.31356e-29
-1.01977e-28
-1.75688e-28
-1.58385e-29
6.10966e-28
1.53528e-27
1.6777e-27
-8.88667e-28
-7.61912e-27
-1.72827e-26
-2.44769e-26
-2.04808e-26
2.69488e-27
4.6115e-26
1.00724e-25
1.50784e-25
1.78415e-25
1.68084e-25
1.19688e-25
5.36708e-26
-7.63243e-27
-4.72809e-26
-5.44742e-26
-4.06242e-26
-1.81289e-26
4.31622e-28
9.16626e-27
9.71297e-27
5.9367e-27
1.6034e-27
-9.74563e-28
-1.64352e-27
-1.08964e-27
-3.65436e-28
7.93137e-29
2.15625e-28
2.05932e-28
1.91868e-28
4.87157e-54
1.92175e-53
-1.65047e-53
-2.59268e-52
-5.5057e-52
9.14253e-52
7.04066e-51
1.16774e-50
-1.37981e-50
-8.42444e-50
-9.36291e-50
1.23331e-49
3.64355e-49
2.47077e-49
-3.8578e-49
-1.08205e-47
-6.8482e-47
-1.84157e-46
-1.30117e-46
5.60347e-46
1.89788e-45
3.44712e-45
4.78909e-45
-4.44551e-45
-4.49671e-44
-2.87886e-44
3.43639e-43
8.12568e-43
-1.48187e-42
-1.09143e-41
-1.19586e-41
5.01987e-41
1.08857e-40
-1.56175e-40
-4.44802e-40
-3.55233e-41
-4.94286e-40
5.09413e-39
3.08693e-38
-2.1119e-39
-1.56818e-37
1.387e-37
9.81888e-37
-7.7858e-37
-2.64032e-36
1.25771e-35
9.3025e-36
-1.286e-34
-1.1954e-34
9.35157e-34
1.48385e-33
-5.36989e-33
-1.5257e-32
1.80587e-32
1.18802e-31
4.88074e-32
-6.62337e-31
-1.44799e-30
1.05906e-30
9.80239e-30
1.37976e-29
-2.13277e-29
-1.13587e-28
-1.51051e-28
1.80157e-28
1.1305e-27
2.07245e-27
5.72367e-28
-7.15561e-27
-2.23359e-26
-3.56925e-26
-1.94391e-26
7.27467e-26
2.91976e-25
6.67645e-25
1.17573e-24
1.71993e-24
2.15002e-24
2.32289e-24
2.17184e-24
1.73493e-24
1.13357e-24
5.28798e-25
6.21496e-26
-1.99117e-25
-2.67142e-25
-2.09545e-25
-1.0737e-25
-2.18064e-26
2.35848e-26
3.25465e-26
2.24356e-26
8.36703e-27
-9.19298e-28
-3.8852e-27
-3.08737e-27
-1.28152e-27
-1.31113e-29
4.40351e-28
4.80863e-28
3.16231e-53
1.1978e-53
-2.72217e-52
-8.02705e-52
-3.85997e-54
5.77635e-51
1.67054e-50
1.54886e-50
-4.01913e-50
-1.76665e-49
-3.09304e-49
-3.3835e-49
-4.43768e-49
8.34305e-49
1.02566e-47
1.60106e-47
-9.42607e-47
-4.92241e-46
-9.28934e-46
-6.71947e-46
-2.17621e-46
2.96287e-45
3.72715e-44
1.39423e-43
1.89661e-43
-2.08619e-43
-2.18624e-42
-6.72965e-42
2.38402e-42
3.7664e-41
-5.20216e-41
-8.53954e-41
1.11069e-39
-6.92344e-40
-1.0907e-38
1.93891e-38
8.20636e-38
-2.58095e-37
-5.92291e-37
2.34188e-36
3.73028e-36
-1.89983e-35
-2.55031e-35
1.38391e-34
2.0498e-34
-8.8058e-34
-1.73124e-33
4.69664e-33
1.3887e-32
-1.76586e-32
-9.73358e-32
4.95101e-33
5.50465e-31
6.40122e-31
-2.07164e-30
-6.20968e-30
1.02857e-30
3.17704e-29
4.8122e-29
-6.24691e-29
-3.32557e-28
-3.66783e-28
6.89747e-28
2.98297e-27
3.69684e-27
-3.41981e-27
-2.20018e-26
-3.96772e-26
-1.79622e-26
9.29737e-26
2.98748e-25
4.80668e-25
3.51742e-25
-4.74445e-25
-2.28057e-24
-5.00225e-24
-8.11018e-24
-1.07213e-23
-1.19131e-23
-1.11388e-23
-8.56246e-24
-5.02251e-24
-1.59044e-24
8.54671e-25
1.91542e-24
1.83186e-24
1.1339e-24
3.68643e-25
-1.34905e-25
-3.07612e-25
-2.51967e-25
-1.15112e-25
-6.14904e-27
4.03109e-26
3.85174e-26
1.88009e-26
2.09118e-27
-5.22139e-27
-6.40371e-27
-6.17988e-27
5.07414e-53
-2.24145e-53
-7.41223e-52
-1.42919e-51
2.22548e-51
1.39648e-50
1.93699e-50
-1.88062e-50
-1.14659e-49
-2.12239e-49
-1.94014e-49
1.55314e-50
-6.21378e-49
-5.24889e-48
-4.00409e-48
7.25642e-47
3.08193e-46
2.84089e-46
-1.96088e-45
-9.51508e-45
-1.95481e-44
-6.5533e-45
1.03875e-43
4.74892e-43
9.07208e-43
-1.18603e-42
-7.90172e-42
-9.46724e-42
-1.44824e-41
3.31543e-41
5.01181e-40
-8.47976e-41
-4.74382e-39
5.35128e-39
3.88837e-38
-8.1209e-38
-2.61423e-37
8.62916e-37
1.46004e-36
-8.17438e-36
-9.80439e-36
6.31541e-35
7.19596e-35
-4.44549e-34
-6.33783e-34
2.7127e-33
5.60389e-33
-1.33825e-32
-4.47379e-32
3.98778e-32
2.98989e-31
1.05629e-31
-1.51364e-30
-2.54591e-30
4.32156e-30
1.95336e-29
1.00281e-29
-7.76083e-29
-1.87788e-28
1.56729e-31
8.41455e-28
1.74738e-27
2.11921e-28
-6.71653e-27
-1.64267e-26
-1.33061e-26
2.89232e-26
1.22424e-25
2.20331e-25
1.80096e-25
-2.2292e-25
-1.20851e-24
-2.85659e-24
-5.00026e-24
-7.23774e-24
-9.10331e-24
-1.03117e-23
-1.08647e-23
-1.09071e-23
-1.05247e-23
-9.72309e-24
-8.44597e-24
-6.59674e-24
-4.33013e-24
-2.10783e-24
-2.9196e-25
8.02084e-25
1.15172e-24
9.5837e-25
5.18487e-25
1.10141e-25
-1.19017e-25
-1.70184e-25
-1.16974e-25
-4.29098e-26
6.69142e-27
2.20474e-26
1.79194e-26
1.18322e-26
1.02304e-26
3.62009e-53
-1.41279e-52
-8.10924e-52
-4.26818e-52
5.72201e-51
1.65021e-50
5.09822e-51
-7.27603e-50
-2.22029e-49
-3.5527e-49
2.8762e-52
2.10123e-48
2.73522e-48
-2.11441e-47
-6.97177e-47
1.47266e-46
1.35883e-45
2.87305e-45
-1.84283e-45
-2.1965e-44
-4.42229e-44
-2.22657e-44
5.09729e-44
2.6415e-43
9.75027e-43
-8.25757e-43
-9.77338e-42
1.78616e-42
-1.28154e-42
-1.30148e-40
9.10339e-40
1.58052e-39
-1.29401e-38
-1.2074e-39
1.35489e-37
-1.27844e-37
-1.07489e-36
2.1457e-36
7.25608e-36
-2.35218e-35
-4.79157e-35
1.99983e-34
3.17506e-34
-1.50236e-33
-2.40544e-33
9.74811e-33
1.9096e-32
-5.47181e-32
-1.5159e-31
2.30972e-31
1.08667e-30
-3.62714e-31
-6.541e-30
-5.33349e-30
2.88223e-29
6.64699e-29
-5.36131e-29
-4.1704e-28
-4.14596e-28
1.29284e-27
4.29906e-27
2.26468e-27
-1.47828e-26
-4.08245e-26
-2.55232e-26
1.12931e-25
3.68745e-25
4.45468e-25
-3.1166e-25
-2.48529e-24
-5.47864e-24
-6.1631e-24
1.5866e-24
2.52408e-23
6.96519e-23
1.32412e-22
2.01487e-22
2.57646e-22
2.81754e-22
2.63634e-22
2.07365e-22
1.2977e-22
5.31485e-23
-3.85332e-24
-3.28781e-23
-3.69026e-23
-2.60321e-23
-1.13106e-23
-2.20049e-25
4.73135e-24
4.82212e-24
2.73556e-24
6.56621e-25
-4.57326e-25
-6.57456e-25
-4.04512e-25
-1.09473e-25
5.23377e-26
9.52666e-26
9.57076e-26
1.73564e-52
-5.8147e-52
1.67148e-51
8.65278e-51
7.24979e-51
-3.04553e-50
-6.42795e-50
7.96665e-50
2.71458e-49
-8.02139e-49
-4.32189e-48
-5.56562e-48
5.32593e-48
2.07892e-47
3.45222e-47
2.20355e-46
9.12875e-46
1.67536e-45
2.47455e-45
9.62311e-45
8.13553e-45
-8.98588e-44
-3.52795e-43
-1.83481e-42
-4.36815e-42
1.62843e-41
2.43623e-41
-2.02615e-40
3.9905e-40
2.03623e-39
-9.51445e-39
-7.19625e-39
1.21491e-37
-9.72511e-38
-1.11617e-36
2.19696e-36
8.32984e-36
-2.63277e-35
-5.54125e-35
2.43431e-34
3.60118e-34
-1.9371e-33
-2.55461e-33
1.37655e-32
2.06696e-32
-8.64176e-32
-1.76443e-31
4.45962e-31
1.40213e-30
-1.53838e-30
-9.60901e-30
-1.16644e-30
5.17756e-29
7.02149e-29
-1.77838e-28
-6.13996e-28
-5.48919e-29
2.88522e-27
5.20117e-27
-3.88003e-27
-3.05477e-26
-4.32562e-26
4.04265e-26
2.63286e-25
4.17852e-25
-6.76032e-26
-1.71851e-24
-3.88324e-24
-3.58473e-24
3.94224e-24
2.1532e-23
4.39955e-23
5.38285e-23
2.43239e-23
-6.74957e-23
-2.23014e-22
-4.10746e-22
-5.7245e-22
-6.47028e-22
-6.00043e-22
-4.42557e-22
-2.28377e-22
-2.87464e-23
1.01759e-22
1.45606e-22
1.20576e-22
6.39833e-23
1.10132e-23
-1.91664e-23
-2.53412e-23
-1.72132e-23
-5.99567e-24
1.5016e-24
3.85752e-24
2.91861e-24
1.11386e-24
-1.14013e-25
-5.29874e-25
-5.37353e-25
-5.05622e-25
-2.2842e-51
-2.20675e-51
7.96504e-51
2.77049e-50
-7.6719e-51
-1.81666e-49
-2.0978e-49
7.85046e-49
2.42093e-48
-9.36323e-49
-1.85257e-47
-4.38795e-47
-1.33284e-47
2.37613e-46
7.58443e-46
1.43438e-46
-5.79227e-45
-1.40092e-44
1.53336e-44
1.43354e-43
2.65792e-43
-2.0235e-43
-1.96036e-42
-2.52392e-42
-1.28134e-42
-1.78089e-41
8.13618e-41
4.02769e-40
-1.19314e-39
-2.00045e-39
1.60754e-38
-9.74505e-39
-1.46418e-37
3.3009e-37
1.00054e-36
-4.20529e-36
-5.8115e-36
3.83347e-35
2.90159e-35
-3.07049e-34
-1.8238e-34
2.23616e-33
1.80649e-33
-1.44234e-32
-1.87401e-32
8.1558e-32
1.78869e-31
-3.49741e-31
-1.44129e-30
4.69212e-31
9.09534e-30
9.76072e-30
-3.74586e-29
-1.14581e-28
1.23484e-29
6.43207e-28
1.14447e-27
-1.11326e-27
-8.18206e-27
-1.19229e-26
1.39862e-26
9.02462e-26
1.49202e-25
-5.18021e-26
-8.10904e-25