/*--------------------------------*- C++ -*----------------------------------*\
  =========                 |
  \\      /  F ield         | OpenFOAM: The Open Source CFD Toolbox
   \\    /   O peration     | Website:  https://openfoam.org
    \\  /    A nd           | Version:  13
     \\/     M anipulation  |
\*---------------------------------------------------------------------------*/
FoamFile
{
    format      ascii;
    class       volScalarField;
    location    "3.2";
    object      T;
}
// * * * * * * * * * * * * * * * * * * * * * * * * * * * * * * * * * * * * * //

dimensions      [0 0 0 1 0 0 0];

internalField   nonuniform List<scalar> 
10000
(
-1.63189e-102
1.80839e-102
-1.38866e-101
7.04745e-101
-3.56494e-100
1.7336e-99
-8.1119e-99
3.64257e-98
-1.56509e-97
6.41169e-97
-2.49332e-96
9.15149e-96
-3.14636e-95
1.00246e-94
-2.91195e-94
7.50076e-94
-1.61923e-93
2.49155e-93
-4.63227e-94
-1.43793e-92
6.36933e-92
-1.66708e-91
2.47417e-91
1.23963e-91
-2.02678e-90
6.38676e-90
-9.0306e-90
-1.02201e-89
8.77422e-89
-2.00158e-88
3.85273e-89
1.10429e-87
-3.09197e-87
1.01933e-87
1.59088e-86
-4.07845e-86
-8.88676e-87
2.52794e-85
-4.00533e-85
-7.77255e-85
3.44347e-84
-4.14793e-85
-1.86336e-83
2.31527e-83
7.91665e-83
-1.93369e-82
-2.8692e-82
1.20233e-81
9.70536e-82
-6.6339e-81
-3.77158e-81
3.45036e-80
2.16924e-80
-1.70788e-79
-1.65574e-79
7.74835e-79
1.27545e-78
-2.8694e-78
-8.61507e-78
5.31662e-78
4.67508e-77
3.28362e-77
-1.72127e-76
-4.07182e-76
1.21184e-76
2.03255e-75
3.26394e-75
-2.33711e-75
-1.89423e-74
-3.25924e-74
1.54868e-75
1.36649e-73
3.49924e-73
4.19057e-73
-1.46566e-73
-1.99708e-72
-5.61103e-72
-1.08673e-71
-1.67915e-71
-2.17299e-71
-2.39742e-71
-2.25539e-71
-1.7754e-71
-1.10351e-71
-4.3859e-72
5.31073e-73
2.98208e-72
3.24468e-72
2.22685e-72
9.14706e-73
-4.0194e-74
-4.41342e-73
-4.21533e-73
-2.2565e-73
-4.39025e-74
4.70704e-74
5.82227e-74
3.32109e-74
7.11897e-75
-6.02307e-75
1.41724e-100
-1.57908e-100
1.21065e-99
-6.15027e-99
3.11322e-98
-1.51495e-97
7.09331e-97
-3.1871e-96
1.37018e-95
-5.61624e-95
2.18515e-94
-8.02447e-94
2.76028e-93
-8.79899e-93
2.5573e-92
-6.59118e-92
1.42399e-91
-2.1945e-91
4.21387e-92
1.26104e-90
-5.59654e-90
1.46648e-89
-2.18033e-89
-1.07693e-89
1.78071e-88
-5.61938e-88
7.96051e-88
8.94831e-88
-7.71641e-87
1.76266e-86
-3.44999e-87
-9.71061e-86
2.72264e-85
-9.04511e-86
-1.39942e-84
3.59209e-84
7.73907e-85
-2.22495e-83
3.52951e-83
6.8356e-83
-3.03229e-82
3.69244e-83
1.64044e-81
-2.0401e-81
-6.96863e-81
1.70308e-80
2.52548e-80
-1.05879e-79
-8.54361e-80
5.8415e-79
3.32144e-79
-3.03807e-78
-1.91112e-78
1.50367e-77
1.45875e-77
-6.82069e-77
-1.12349e-76
2.52485e-76
7.58649e-76
-4.67002e-76
-4.11535e-75
-2.89602e-75
1.51419e-74
3.58535e-74
-1.05944e-74
-1.78817e-73
-2.87452e-73
2.04902e-73
1.66604e-72
2.86932e-72
-1.2904e-73
-1.20095e-71
-3.07782e-71
-3.68966e-71
1.27712e-71
1.75398e-70
4.93081e-70
9.55187e-70
1.47606e-69
1.91028e-69
2.10763e-69
1.98276e-69
1.56073e-69
9.69983e-70
3.85386e-70
-4.68792e-71
-2.62306e-70
-2.85321e-70
-1.95775e-70
-8.03817e-71
3.57477e-72
3.8829e-71
3.70699e-71
1.98362e-71
3.85304e-72
-4.14384e-72
-5.12122e-72
-2.91985e-72
-6.24938e-73
5.30166e-73
-1.25783e-98
1.40927e-98
-1.07871e-97
5.48569e-97
-2.77873e-96
1.35311e-95
-6.33962e-95
2.85019e-94
-1.22604e-93
5.02823e-93
-1.95741e-92
7.19186e-92
-2.47513e-91
7.89407e-91
-2.29553e-90
5.92007e-90
-1.28002e-89
1.97564e-89
-3.91397e-90
-1.13037e-88
5.02633e-88
-1.31856e-87
1.96391e-87
9.56123e-88
-1.59914e-86
5.05362e-86
-7.1725e-86
-8.00796e-86
6.93629e-85
-1.58661e-84
3.1568e-85
8.72804e-84
-2.45047e-83
8.20336e-84
1.25825e-82
-3.23374e-82
-6.88794e-83
2.00161e-81
-3.17903e-81
-6.14463e-81
2.72929e-80
-3.35929e-81
-1.47615e-79
1.83741e-79
6.26989e-79
-1.53317e-78
-2.27213e-78
9.53013e-78
7.68736e-78
-5.25759e-77
-2.98975e-77
2.73425e-76
1.72097e-76
-1.35318e-75
-1.31365e-75
6.13696e-75
1.01153e-74
-2.27084e-74
-6.82855e-74
4.19281e-74
3.70279e-73
2.61069e-73
-1.3615e-72
-3.22687e-72
9.46665e-73
1.60799e-71
2.58758e-71
-1.83617e-71
-1.49777e-70
-2.58194e-70
1.0955e-71
1.07882e-69
2.76706e-69
3.32051e-69
-1.13734e-69
-1.57456e-68
-4.42894e-68
-8.58147e-68
-1.32624e-67
-1.7165e-67
-1.89387e-67
-1.78166e-67
-1.40238e-67
-8.71482e-68
-3.4613e-68
4.22969e-69
2.35833e-68
2.56449e-68
1.75926e-68
7.22001e-69
-3.24934e-70
-3.49176e-69
-3.3321e-69
-1.78233e-69
-3.45638e-70
3.72876e-70
4.60427e-70
2.62389e-70
5.60737e-71
-4.76992e-71
1.08967e-96
-1.22812e-96
9.38437e-96
-4.77758e-95
2.42182e-94
-1.18017e-93
5.53311e-93
-2.4892e-92
1.07141e-91
-4.39663e-91
1.7125e-90
-6.29543e-90
2.16778e-89
-6.91753e-89
2.01269e-88
-5.19393e-88
1.12394e-87
-1.73753e-87
3.5526e-88
9.89641e-87
-4.40947e-86
1.15811e-85
-1.72815e-85
-8.28598e-86
1.40276e-84
-4.43965e-84
6.31345e-84
6.99886e-84
-6.09063e-83
1.39514e-82
-2.82298e-83
-7.66315e-82
2.15455e-81
-7.26997e-82
-1.10513e-80
2.8439e-80
5.98507e-81
-1.75905e-79
2.79729e-79
5.39557e-79
-2.39981e-78
2.9866e-79
1.29761e-77
-1.61667e-77
-5.51077e-77
1.34833e-76
1.99693e-76
-8.37987e-76
-6.75702e-76
4.6227e-75
2.62902e-75
-2.40394e-74
-1.51397e-74
1.1896e-73
1.15566e-73
-5.39411e-73
-8.89698e-73
1.99513e-72
6.00433e-72
-3.67697e-72
-3.25457e-71
-2.29925e-71
1.19586e-70
2.83711e-70
-8.26043e-71
-1.4125e-69
-2.27548e-69
1.60707e-69
1.31531e-68
2.26964e-68
-9.02757e-70
-9.46634e-68
-2.43007e-67
-2.91923e-67
9.88877e-68
1.38067e-66
3.88586e-66
7.5309e-66
1.16401e-65
1.50662e-65
1.66234e-65
1.56385e-65
1.23089e-65
7.64831e-66
3.03659e-66
-3.72844e-67
-2.07123e-66
-2.25159e-66
-1.54425e-66
-6.33469e-67
2.88622e-68
3.06735e-67
2.92574e-67
1.56433e-67
3.02844e-68
-3.27769e-68
-4.04366e-68
-2.30328e-68
-4.91436e-69
4.19229e-69
-9.20774e-95
1.04436e-94
-7.96561e-94
4.06004e-93
-2.0597e-92
1.00448e-91
-4.71281e-91
2.12162e-90
-9.13787e-90
3.75211e-89
-1.46232e-88
5.37882e-88
-1.85319e-87
5.91702e-87
-1.72261e-86
4.44829e-86
-9.63427e-86
1.49187e-85
-3.14923e-86
-8.45696e-85
3.77614e-84
-9.9301e-84
1.48466e-83
7.00436e-84
-1.20117e-82
3.80758e-82
-5.42569e-82
-5.96997e-82
5.22087e-81
-1.19768e-80
2.46568e-81
6.56812e-80
-1.84942e-79
6.29172e-80
9.47562e-79
-2.44173e-78
-5.07372e-79
1.50917e-77
-2.40306e-77
-4.62514e-77
2.06005e-76
-2.5932e-77
-1.11359e-75
1.38873e-75
4.72857e-75
-1.15766e-74
-1.71339e-74
7.19365e-74
5.79826e-74
-3.96804e-73
-2.25697e-73
2.06338e-72
1.30029e-72
-1.02098e-71
-9.92582e-72
4.62861e-71
7.63985e-71
-1.71125e-70
-5.15434e-70
3.1477e-70
2.79269e-69
1.97705e-69
-1.02541e-68
-2.43525e-68
7.03407e-69
1.21128e-67
1.95356e-67
-1.37287e-67
-1.12762e-66
-1.94776e-66
7.20712e-68
8.1086e-66
2.08337e-65
2.50554e-65
-8.38867e-66
-1.18177e-64
-3.32816e-64
-6.45157e-64
-9.97302e-64
-1.29092e-63
-1.42439e-63
-1.33999e-63
-1.05465e-63
-6.55249e-64
-2.60052e-64
3.20896e-65
1.77582e-64
1.92983e-64
1.32325e-64
5.42553e-65
-2.50371e-66
-2.63048e-65
-2.50783e-65
-1.34032e-65
-2.59008e-66
2.8128e-66
3.46686e-66
1.97373e-66
4.20415e-67
-3.59712e-67
7.58421e-93
-8.66087e-93
6.59295e-92
-3.3646e-91
1.70832e-90
-8.33806e-90
3.91504e-89
-1.76375e-88
7.60174e-88
-3.12339e-87
1.21805e-86
-4.48304e-86
1.54549e-85
-4.93749e-85
1.43833e-84
-3.7168e-84
8.05732e-84
-1.24987e-83
2.72494e-84
7.04984e-83
-3.15491e-82
8.30729e-82
-1.24456e-81
-5.77174e-82
1.00346e-80
-3.1861e-80
4.5498e-80
4.96708e-80
-4.36637e-79
1.00321e-78
-2.10231e-79
-5.49251e-78
1.54896e-77
-5.31449e-78
-7.92696e-77
2.04557e-76
4.19364e-77
-1.26332e-75
2.01435e-75
3.86821e-75
-1.72546e-74
2.19779e-75
9.32455e-74
-1.16401e-73
-3.95882e-73
9.69823e-73
1.43438e-72
-6.02543e-72
-4.85468e-72
3.3234e-71
1.89054e-71
-1.72806e-70
-1.08969e-70
8.54978e-70
8.31838e-70
-3.87527e-69
-6.40118e-69
1.43208e-68
4.31727e-68
-2.62885e-68
-2.33815e-67
-1.65885e-67
8.57864e-67
2.03955e-66
-5.84184e-67
-1.01347e-65
-1.63648e-65
1.14406e-65
9.43179e-65
1.63093e-64
-5.56174e-66
-6.7763e-64
-1.74268e-63
-2.09826e-63
6.9386e-64
9.86839e-63
2.781e-62
5.39224e-62
8.33651e-62
1.07916e-61
1.19077e-61
1.12021e-61
8.81632e-62
5.47689e-62
2.17277e-62
-2.69511e-63
-1.4855e-62
-1.61379e-62
-1.10626e-62
-4.53355e-63
2.11993e-64
2.20097e-63
2.09728e-63
1.1204e-63
2.16101e-64
-2.35522e-64
-2.90002e-64
-1.65014e-64
-3.50869e-65
3.01146e-65
-6.08511e-91
6.99996e-91
-5.31747e-90
2.71732e-89
-1.3809e-88
6.74589e-88
-3.17004e-87
1.42923e-86
-6.16442e-86
2.53458e-85
-9.89081e-85
3.64265e-84
-1.25656e-83
4.01695e-83
-1.17094e-82
3.02806e-82
-6.57053e-82
1.02111e-81
-2.30015e-82
-5.72939e-81
2.57005e-80
-6.77658e-80
1.0174e-79
4.63298e-80
-8.1735e-79
2.59967e-78
-3.72068e-78
-4.02851e-78
3.56072e-77
-8.19438e-77
1.74879e-77
4.47854e-76
-1.26507e-75
4.37887e-76
6.46622e-75
-1.6711e-74
-3.37734e-75
1.03121e-73
-1.6466e-73
-3.15453e-73
1.40929e-72
-1.81711e-73
-7.61367e-72
9.5144e-72
3.23193e-71
-7.9228e-71
-1.17094e-70
4.9215e-70
3.96356e-70
-2.7143e-69
-1.54425e-69
1.41126e-68
8.90519e-69
-6.98166e-68
-6.79817e-68
3.16383e-67
5.23013e-67
-1.16861e-66
-3.52627e-66
2.14066e-66
1.90889e-65
1.35738e-65
-6.99818e-65
-1.66569e-64
4.72888e-65
8.26838e-64
1.3368e-63
-9.29436e-64
-7.69251e-63
-1.33168e-62
4.13685e-64
5.52155e-62
1.42138e-61
1.7135e-61
-5.59234e-62
-8.03457e-61
-2.26578e-60
-4.39438e-60
-6.79468e-60
-8.79629e-60
-9.70633e-60
-9.13113e-60
-7.18611e-60
-4.46362e-60
-1.77004e-60
2.20754e-61
1.21169e-60
1.31586e-60
9.0179e-61
3.69364e-61
-1.75103e-62
-1.79573e-61
-1.71023e-61
-9.13204e-62
-1.75787e-62
1.92304e-62
2.36542e-62
1.34519e-62
2.85497e-63
-2.45844e-63
4.75236e-89
-5.51012e-89
4.17634e-88
-2.13725e-87
1.08716e-86
-5.31588e-86
2.50023e-85
-1.12816e-84
4.86966e-84
-2.0037e-83
7.82461e-83
-2.88365e-82
9.95396e-82
-3.18419e-81
9.28834e-81
-2.40383e-80
5.22127e-80
-8.12983e-80
1.89297e-80
4.53651e-79
-2.04004e-78
5.38685e-78
-8.10557e-78
-3.62004e-78
6.4872e-77
-2.06707e-76
2.96535e-76
3.18287e-76
-2.82957e-75
6.52287e-75
-1.41842e-75
-3.55849e-74
1.0069e-73
-3.51727e-74
-5.14004e-73
1.33044e-72
2.64834e-73
-8.2029e-72
1.31178e-71
2.50683e-71
-1.12175e-70
1.46473e-71
6.05834e-70
-7.57913e-70
-2.57127e-69
6.30767e-69
9.31521e-69
-3.91748e-68
-3.15356e-68
2.16038e-67
1.22927e-67
-1.12319e-66
-7.09244e-67
5.55594e-66
5.41449e-66
-2.51719e-65
-4.16458e-65
9.29298e-65
2.80686e-64
-1.69848e-64
-1.51874e-63
-1.08251e-63
5.56321e-63
1.32572e-62
-3.72858e-63
-6.57367e-62
-1.0642e-61
7.35643e-62
6.11379e-61
1.05964e-60
-2.9545e-62
-4.38407e-60
-1.12972e-59
-1.36365e-59
4.38892e-60
6.37394e-59
1.79878e-58
3.48961e-58
5.39645e-58
6.98667e-58
7.70973e-58
7.25281e-58
5.70763e-58
3.54481e-58
1.40506e-58
-1.76237e-59
-9.6312e-59
-1.04553e-58
-7.16324e-59
-2.93235e-59
1.41006e-60
1.42773e-59
1.35899e-59
7.25298e-60
1.39323e-60
-1.53016e-60
-1.88012e-60
-1.06857e-60
-2.26347e-61
1.95583e-61
-3.60989e-87
4.22133e-87
-3.1918e-86
1.63594e-85
-8.33005e-85
4.07725e-84
-1.91945e-83
8.66859e-83
-3.74485e-82
1.54208e-81
-6.02645e-81
2.22256e-80
-7.67738e-80
2.45766e-79
-7.17428e-79
1.85822e-78
-4.04046e-78
6.30395e-78
-1.51791e-78
-3.49725e-77
1.57685e-76
-4.17008e-76
6.2894e-76
2.75124e-76
-5.01368e-75
1.60061e-74
-2.30182e-74
-2.44808e-74
2.18969e-73
-5.05683e-73
1.12103e-73
2.75341e-72
-7.80496e-72
2.75244e-72
3.97895e-71
-1.0316e-70
-2.02054e-71
6.35461e-70
-1.0178e-69
-1.93997e-69
8.69577e-69
-1.15039e-69
-4.69484e-68
5.88015e-68
1.99223e-67
-4.89079e-67
-7.21695e-67
3.03691e-66
2.44356e-66
-1.67463e-65
-9.5301e-66
8.70587e-65
5.50142e-65
-4.30593e-64
-4.20001e-64
1.95041e-63
3.22963e-63
-7.19672e-63
-2.17592e-62
1.31225e-62
1.17676e-61
8.40845e-62
-4.30678e-61
-1.0276e-60
2.86156e-61
5.08961e-60
8.25085e-60
-5.66887e-60
-4.7319e-59
-8.21149e-59
2.01532e-60
3.38965e-58
8.74412e-58
1.0569e-57
-3.35154e-58
-4.92371e-57
-1.39058e-56
-2.69849e-56
-4.17362e-56
-5.40391e-56
-5.96337e-56
-5.60993e-56
-4.41454e-56
-2.74135e-56
-1.08608e-56
1.37043e-57
7.4551e-57
8.08978e-57
5.54094e-57
2.2669e-57
-1.10632e-58
-1.10546e-57
-1.05162e-57
-5.6096e-58
-1.07516e-58
1.18575e-58
1.45529e-58
8.26601e-59
1.74731e-59
-1.51533e-59
2.66476e-85
-3.14509e-85
2.37186e-84
-1.21771e-83
6.20732e-83
-3.04153e-82
1.43329e-81
-6.47909e-81
2.80145e-80
-1.15456e-79
4.51561e-79
-1.66664e-78
5.76135e-78
-1.84568e-77
5.39199e-77
-1.39779e-76
3.04272e-76
-4.75736e-76
1.18517e-76
2.62309e-75
-1.18601e-74
3.14152e-74
-4.74975e-74
-2.03209e-74
3.77053e-73
-1.20616e-72
1.73904e-72
1.83168e-72
-1.649e-71
3.81535e-71
-8.62773e-72
-2.07324e-70
5.88803e-70
-2.09705e-70
-2.99747e-69
7.78471e-69
1.49868e-69
-4.79084e-68
7.68602e-68
1.46098e-67
-6.56047e-67
8.79731e-68
3.54077e-66
-4.44008e-66
-1.50222e-65
3.69071e-65
5.44149e-65
-2.29126e-64
-1.84269e-64
1.26334e-63
7.19058e-64
-6.56725e-63
-4.1532e-63
3.24778e-62
3.17082e-62
-1.47075e-61
-2.43758e-61
5.42385e-61
1.64165e-60
-9.86532e-61
-8.8736e-60
-6.35706e-60
3.24464e-59
7.7519e-59
-2.13606e-59
-3.83487e-58
-6.22577e-58
4.25007e-58
3.56403e-57
6.19292e-57
-1.30264e-58
-2.55027e-56
-6.58632e-56
-7.97219e-56
2.48836e-56
3.70093e-55
1.04609e-54
2.03059e-54
3.1411e-54
4.06735e-54
4.48859e-54
4.22254e-54
3.32261e-54
2.06298e-54
8.16916e-55
-1.03728e-55
-5.61578e-55
-6.09134e-55
-4.17085e-55
-1.70531e-55
8.45145e-57
8.32964e-56
7.91905e-56
4.22193e-56
8.07301e-57
-8.94243e-57
-1.09621e-56
-6.22237e-57
-1.31245e-57
1.14258e-57
-1.90991e-83
2.277e-83
-1.71237e-82
8.80722e-82
-4.49483e-81
2.20499e-80
-1.0402e-79
4.70685e-79
-2.03708e-78
8.40291e-78
-3.28925e-77
1.215e-76
-4.20342e-76
1.34766e-75
-3.94029e-75
1.0224e-74
-2.22818e-74
3.4916e-74
-9.0041e-75
-1.91273e-73
8.67395e-73
-2.30145e-72
3.48862e-72
1.45738e-72
-2.75723e-71
8.83894e-71
-1.27785e-70
-1.33217e-70
1.20758e-69
-2.79957e-69
6.46151e-70
1.51804e-68
-4.31984e-68
1.55444e-68
2.19587e-67
-5.71322e-67
-1.07978e-67
3.51251e-66
-5.64495e-66
-1.06991e-65
4.8135e-65
-6.54593e-66
-2.59696e-64
3.26071e-64
1.10158e-63
-2.7086e-63
-3.98995e-63
1.68119e-62
1.35135e-62
-9.26875e-62
-5.27632e-62
4.81783e-61
3.04933e-61
-2.38233e-60
-2.32814e-60
1.07855e-59
1.78926e-59
-3.97518e-59
-1.20453e-58
7.21144e-59
6.50728e-58
4.67457e-58
-2.3771e-57
-5.68709e-57
1.54965e-57
2.80987e-56
4.56868e-56
-3.09768e-56
-2.61041e-55
-4.54214e-55
7.87791e-57
1.86575e-54
4.82428e-54
5.84811e-54
-1.79476e-54
-2.70484e-53
-7.65192e-53
-1.48581e-52
-2.29875e-52
-2.97687e-52
-3.28529e-52
-3.09055e-52
-2.43174e-52
-1.50962e-52
-5.97478e-53
7.63668e-54
4.11368e-53
4.46008e-53
3.0529e-53
1.2474e-53
-6.28185e-55
-6.10354e-54
-5.79891e-54
-3.08983e-54
-5.89359e-55
6.5586e-55
8.02972e-55
4.55474e-55
9.58495e-56
-8.37821e-56
1.32782e-81
-1.60056e-81
1.2e-80
-6.18408e-80
3.16015e-79
-1.55219e-78
7.33091e-78
-3.32079e-77
1.43866e-76
-5.9401e-76
2.32731e-75
-8.6042e-75
2.97924e-74
-9.55978e-74
2.79753e-73
-7.26584e-73
1.58548e-72
-2.49033e-72
6.65133e-73
1.35488e-71
-6.16357e-71
1.6383e-70
-2.49015e-70
-1.01391e-70
1.95897e-69
-6.29407e-69
9.12527e-69
9.41013e-69
-8.5928e-68
1.99626e-67
-4.70555e-68
-1.08003e-66
3.07986e-66
-1.12018e-66
-1.56311e-65
4.07466e-65
7.5502e-66
-2.5025e-64
4.02909e-64
7.61336e-64
-3.43205e-63
4.73574e-64
1.85093e-62
-2.32712e-62
-7.84972e-62
1.93175e-61
2.84295e-61
-1.19874e-60
-9.63032e-61
6.60825e-60
3.76242e-60
-3.43465e-59
-2.17575e-59
1.69815e-58
1.66122e-58
-7.68596e-58
-1.27633e-57
2.83104e-57
8.58862e-57
-5.12162e-57
-4.63718e-56
-3.34073e-56
1.69223e-55
4.05449e-55
-1.0917e-55
-2.00058e-54
-3.25806e-54
2.19317e-54
1.8578e-53
3.2373e-53
-4.35655e-55
-1.32623e-52
-3.43358e-52
-4.16885e-52
1.25642e-52
1.92062e-51
5.43833e-51
1.05635e-50
1.63459e-50
2.11697e-50
2.33639e-50
2.19789e-50
1.72926e-50
1.07335e-50
4.24576e-51
-5.46449e-52
-2.92806e-51
-3.17315e-51
-2.17124e-51
-8.86544e-52
4.53971e-53
4.34583e-52
4.12609e-52
2.19716e-52
4.17988e-53
-4.67437e-53
-5.71525e-53
-3.23952e-53
-6.80058e-54
5.96993e-54
-8.94505e-80
1.09136e-79
-8.15515e-79
4.21167e-78
-2.15524e-77
1.06004e-76
-5.01277e-76
2.27335e-75
-9.85953e-75
4.07508e-74
-1.59815e-73
5.91395e-73
-2.04958e-72
6.5826e-72
-1.92809e-71
5.01284e-71
-1.0953e-70
1.72468e-70
-4.77363e-71
-9.31516e-70
4.25183e-69
-1.13229e-68
1.72598e-68
6.83562e-69
-1.35116e-67
4.35157e-67
-6.32793e-67
-6.4504e-67
5.93631e-66
-1.38215e-65
3.32958e-66
7.46013e-65
-2.13209e-64
7.84172e-65
1.0803e-63
-2.82177e-63
-5.11863e-64
1.73111e-62
-2.79249e-62
-5.25979e-62
2.37607e-61
-3.3286e-62
-1.28092e-60
1.61273e-60
5.43113e-60
-1.33776e-59
-1.96684e-59
8.29941e-59
6.66368e-59
-4.57471e-58
-2.60506e-58
2.37752e-57
1.50744e-57
-1.17532e-56
-1.151e-56
5.31809e-56
8.8405e-56
-1.95759e-55
-5.94624e-55
3.53108e-55
3.20855e-54
2.31849e-54
-1.16962e-53
-2.80668e-53
7.46171e-54
1.38295e-52
2.25602e-52
-1.50707e-52
-1.28369e-51
-2.24032e-51
2.0965e-53
9.15206e-51
2.37265e-50
2.88552e-50
-8.52873e-51
-1.32388e-49
-3.75227e-49
-7.29105e-49
-1.12842e-48
-1.46156e-48
-1.61312e-48
-1.51748e-48
-1.19386e-48
-7.40903e-49
-2.92899e-49
3.79739e-50
2.02348e-49
2.19179e-49
1.49919e-49
6.11685e-50
-3.18722e-51
-3.00431e-50
-2.85032e-50
-1.51683e-50
-2.87756e-51
3.23474e-51
3.94949e-51
2.23693e-51
4.6837e-52
-4.13034e-52
5.83244e-78
-7.21149e-78
5.36924e-77
-2.7794e-76
1.42447e-75
-7.01652e-75
3.32251e-74
-1.50869e-73
6.5509e-73
-2.71056e-72
1.06413e-71
-3.94173e-71
1.36739e-70
-4.39584e-70
1.28885e-69
-3.35454e-69
7.33991e-69
-1.1588e-68
3.32585e-69
6.21052e-68
-2.84489e-67
7.59139e-67
-1.16068e-66
-4.46083e-67
9.03916e-66
-2.91854e-65
4.2575e-65
4.28678e-65
-3.97818e-64
9.28404e-64
-2.28724e-64
-4.9985e-63
1.43191e-62
-5.32824e-63
-7.24262e-62
1.89582e-61
3.36103e-62
-1.1617e-60
1.87776e-60
3.5249e-60
-1.59589e-59
2.27108e-60
8.59964e-59
-1.08435e-58
-3.64544e-58
8.98776e-58
1.32005e-57
-5.57457e-57
-4.47315e-57
3.0724e-56
1.74989e-56
-1.59662e-55
-1.01328e-55
7.89171e-55
7.7372e-55
-3.56976e-54
-5.94075e-54
1.31313e-53
3.99394e-53
-2.36123e-53
-2.15371e-52
-1.56122e-52
7.84211e-52
1.88489e-51
-4.94339e-52
-9.27376e-51
-1.51556e-50
1.00422e-50
8.60423e-50
1.50407e-49
-7.56274e-52
-6.12599e-49
-1.59042e-48
-1.93761e-48
5.60808e-49
8.85081e-48
2.51116e-47
4.88131e-47
7.55613e-47
9.78792e-47
1.08033e-46
1.01628e-46
7.99494e-47
4.96071e-47
1.95988e-47
-2.56062e-48
-1.35648e-47
-1.46855e-47
-1.0041e-47
-4.09362e-48
2.17211e-49
2.01474e-48
1.91e-48
1.01574e-48
1.9212e-49
-2.17162e-49
-2.64753e-49
-1.49829e-49
-3.12848e-50
2.77221e-50
-3.67622e-76
4.61313e-76
-3.421e-75
1.77545e-74
-9.11451e-74
4.49678e-73
-2.13248e-72
9.69648e-72
-4.21566e-71
1.74639e-70
-6.86378e-70
2.54519e-69
-8.83848e-69
2.84427e-68
-8.34812e-68
2.17534e-67
-4.76687e-67
7.54676e-67
-2.24746e-67
-4.01144e-66
1.84458e-65
-4.93266e-65
7.56595e-65
2.81437e-65
-5.85986e-64
1.8971e-63
-2.77672e-63
-2.75933e-63
2.58367e-62
-6.04453e-62
1.52405e-62
3.24574e-61
-9.32114e-61
3.51093e-61
4.70591e-60
-1.23459e-59
-2.13514e-60
7.55587e-59
-1.22394e-58
-2.28934e-58
1.03894e-57
-1.50287e-58
-5.59592e-57
7.06712e-57
2.37157e-56
-5.85294e-56
-8.58685e-56
3.62926e-55
2.91032e-55
-2.00002e-54
-1.13933e-54
1.03924e-53
6.6021e-54
-5.13594e-53
-5.04143e-53
2.32247e-52
3.86956e-52
-8.53695e-52
-2.60018e-51
1.53001e-51
1.40119e-50
1.01912e-50
-5.09586e-50
-1.22693e-49
3.17121e-50
6.02711e-49
9.86845e-49
-6.48244e-49
-5.58925e-48
-9.78714e-48
4.38204e-51
3.97363e-47
1.03319e-46
1.26109e-46
-3.56817e-47
-5.7337e-46
-1.62855e-45
-3.16694e-45
-4.90334e-45
-6.35228e-45
-7.0116e-45
-6.59584e-45
-5.1885e-45
-3.21875e-45
-1.27082e-45
1.67393e-46
8.813e-46
9.53579e-46
6.51728e-46
2.65482e-46
-1.43567e-47
-1.30947e-46
-1.24038e-46
-6.59155e-47
-1.2428e-47
1.41306e-47
1.72002e-47
9.72546e-48
2.02474e-48
-1.8034e-48
2.23688e-74
-2.8536e-74
2.1069e-73
-1.09656e-72
5.63965e-72
-2.78732e-71
1.32394e-70
-6.02897e-70
2.62478e-69
-1.08875e-68
4.28427e-68
-1.59051e-67
5.52938e-67
-1.78135e-66
5.23428e-66
-1.36564e-65
2.99731e-65
-4.75928e-65
1.47169e-65
2.50763e-64
-1.15782e-63
3.10321e-63
-4.77601e-63
-1.71431e-63
3.67749e-62
-1.19398e-61
1.75377e-61
1.71849e-61
-1.6246e-60
3.81076e-60
-9.84125e-61
-2.04051e-59
5.87543e-59
-2.24141e-59
-2.96047e-58
7.78537e-58
1.31065e-58
-4.75853e-57
7.72561e-57
1.43957e-56
-6.54938e-56
9.63656e-57
3.52592e-55
-4.46032e-55
-1.49391e-54
3.69084e-54
5.40853e-54
-2.28795e-53
-1.83347e-53
1.26069e-52
7.18307e-53
-6.55013e-52
-4.16558e-52
3.23655e-51
3.18102e-51
-1.46307e-50
-2.44071e-50
5.37382e-50
1.63918e-49
-9.59717e-50
-8.82688e-49
-6.4428e-49
3.20607e-48
7.73341e-48
-1.96774e-48
-3.79261e-47
-6.2223e-47
4.04968e-47
3.51526e-46
6.16671e-46
2.71691e-48
-2.49528e-45
-6.49853e-45
-7.94767e-45
2.19411e-45
3.5956e-44
1.02246e-43
1.98918e-43
3.08048e-43
3.99122e-43
4.4057e-43
4.14444e-43
3.2599e-43
2.02191e-43
7.97717e-44
-1.05986e-44
-5.5437e-44
-5.99485e-44
-4.0954e-44
-1.66678e-44
9.19453e-46
8.24048e-45
7.79892e-45
4.14124e-45
7.78156e-46
-8.90318e-46
-1.08191e-45
-6.11177e-46
-1.26841e-46
1.13595e-46
-1.31195e-72
1.70489e-72
-1.25266e-71
6.54016e-71
-3.37045e-70
1.66903e-69
-7.94171e-69
3.62236e-68
-1.57941e-67
6.56049e-67
-2.58498e-66
9.60851e-66
-3.34441e-65
1.07871e-64
-3.17352e-64
8.29083e-64
-1.82277e-63
2.90338e-63
-9.32925e-64
-1.51546e-62
7.028e-62
-1.88824e-61
2.91658e-61
1.00668e-61
-2.23183e-60
7.26826e-60
-1.07161e-59
-1.03436e-59
9.88002e-59
-2.32399e-58
6.15226e-59
1.24068e-57
-3.58245e-57
1.385e-57
1.80133e-56
-4.74913e-56
-7.76378e-57
2.89872e-55
-4.71747e-55
-8.75502e-55
3.99374e-54
-5.98147e-55
-2.14898e-53
2.72327e-53
9.1026e-53
-2.25142e-52
-3.29513e-52
1.39524e-51
1.11728e-51
-7.68694e-51
-4.38072e-51
3.99346e-50
2.54251e-50
-1.97291e-49
-1.94167e-49
8.91525e-49
1.48921e-48
-3.27187e-48
-9.99595e-48
5.82131e-48
5.37864e-47
3.94063e-47
-1.95096e-46
-4.71509e-46
1.17963e-46
2.30829e-45
3.79517e-45
-2.44567e-45
-2.13831e-44
-3.75846e-44
-3.59217e-46
1.51536e-43
3.9533e-43
4.84505e-43
-1.30223e-43
-2.18036e-42
-6.20794e-42
-1.2083e-41
-1.87164e-41
-2.42528e-41
-2.67728e-41
-2.5185e-41
-1.98083e-41
-1.22831e-41
-4.84246e-42
6.49286e-43
3.37279e-42
3.64498e-42
2.48891e-42
1.012e-42
-5.69997e-44
-5.01572e-43
-4.74256e-43
-2.51623e-43
-4.71092e-44
5.4261e-44
6.58209e-44
3.71458e-44
7.68316e-45
-6.92111e-45
7.40426e-71
-9.82505e-71
7.17993e-70
-3.76185e-69
1.94301e-68
-9.64237e-68
4.59702e-67
-2.10052e-66
9.17367e-66
-3.81634e-65
1.50587e-64
-5.60499e-64
1.95345e-63
-6.30876e-63
1.85843e-62
-4.8621e-62
1.0709e-61
-1.71147e-61
5.71908e-62
8.84376e-61
-4.1208e-60
1.11003e-59
-1.72112e-59
-5.68937e-60
1.30834e-58
-4.27472e-58
6.32764e-58
6.00978e-58
-5.80477e-57
1.36946e-56
-3.71959e-57
-7.28772e-56
2.11062e-55
-8.27451e-56
-1.05891e-54
2.79931e-54
4.43155e-55
-1.70609e-53
2.78364e-53
5.14396e-53
-2.35316e-52
3.5902e-53
1.26552e-51
-1.60672e-51
-5.3589e-51
1.32706e-50
1.9397e-50
-8.22137e-50
-6.57842e-50
4.52885e-49
2.58152e-49
-2.35253e-48
-1.49956e-48
1.16202e-47
1.14525e-47
-5.24897e-47
-8.78018e-47
1.92468e-46
5.88997e-46
-3.41062e-46
-3.16671e-45
-2.3293e-45
1.14698e-44
2.77778e-44
-6.82367e-45
-1.35732e-43
-2.2367e-43
1.42613e-43
1.25663e-42
2.21332e-42
3.32795e-44
-8.88962e-42
-2.32343e-41
-2.85391e-41
7.44939e-42
1.27706e-40
3.64095e-40
7.0902e-40
1.09853e-39
1.42367e-39
1.57168e-39
1.47846e-39
1.16273e-39
7.20841e-40
2.83951e-40
-3.84442e-41
-1.98246e-40
-2.14103e-40
-1.46123e-40
-5.93534e-41
3.41686e-42
2.94954e-41
2.78615e-41
1.47692e-41
2.75432e-42
-3.19526e-42
-3.86867e-42
-2.18096e-42
-4.49479e-43
4.07439e-43
-4.01331e-69
5.45376e-69
-3.96137e-68
2.08372e-67
-1.07895e-66
5.36716e-66
-2.5643e-65
1.17401e-64
-5.13655e-64
2.14043e-63
-8.45898e-63
3.15314e-62
-1.10048e-61
3.55898e-61
-1.04988e-60
2.75097e-60
-6.07094e-60
9.737e-60
-3.38663e-60
-4.9773e-59
2.33111e-58
-6.29686e-58
9.80322e-58
3.08878e-58
-7.39955e-57
2.42611e-56
-3.60648e-56
-3.36617e-56
3.29084e-55
-7.78838e-55
2.17243e-55
4.13057e-54
-1.20009e-53
4.77432e-54
6.00663e-53
-1.59249e-52
-2.4335e-53
9.69048e-52
-1.58539e-51
-2.91631e-51
1.33814e-50
-2.08145e-51
-7.19231e-50
9.14968e-50
3.04468e-49
-7.54937e-49
-1.10191e-48
4.6754e-48
3.738e-48
-2.57512e-47
-1.46821e-47
1.3375e-46
8.53637e-47
-6.60521e-46
-6.51977e-46
2.98244e-45
4.99628e-45
-1.09258e-44
-3.34951e-44
1.92775e-44
1.7993e-43
1.32907e-43
-6.50697e-43
-1.57935e-42
3.80355e-43
7.70181e-42
1.27225e-41
-8.01971e-42
-7.12596e-41
-1.25788e-40
-2.62563e-42
5.03151e-40
1.31766e-39
1.62238e-39
-4.10085e-40
-7.21587e-39
-2.06026e-38
-4.01417e-38
-6.22107e-38
-8.06348e-38
-8.90237e-38
-8.37427e-38
-6.58531e-38
-4.08158e-38
-1.60639e-38
2.19751e-39
1.12442e-38
1.21349e-38
8.27746e-39
3.35855e-39
-1.97834e-40
-1.67377e-39
-1.57939e-39
-8.36433e-40
-1.55331e-40
1.81588e-40
2.19414e-40
1.23555e-40
2.53649e-41
-2.31474e-41
2.08457e-67
-2.91142e-67
2.10028e-66
-1.10971e-65
5.76228e-65
-2.87405e-64
1.37644e-63
-6.31545e-63
2.76864e-62
-1.15583e-61
4.57563e-61
-1.70834e-60
5.97147e-60
-1.93408e-59
5.71413e-59
-1.49975e-58
3.31664e-58
-5.33976e-58
1.93486e-58
2.69792e-57
-1.27059e-56
3.44245e-56
-5.38269e-56
-1.60739e-56
4.03224e-55
-1.32704e-54
1.9816e-54
1.81507e-54
-1.79789e-53
4.26948e-53
-1.22422e-53
-2.25609e-52
6.57723e-52
-2.65722e-52
-3.28366e-51
8.73253e-51
1.28327e-51
-5.30496e-50
8.70419e-50
1.59333e-49
-7.33463e-49
1.1642e-49
3.93985e-48
-5.02272e-48
-1.66728e-47
4.13972e-47
6.03331e-47
-2.56285e-46
-2.04721e-46
1.41134e-45
8.04878e-46
-7.32952e-45
-4.68423e-45
3.6189e-44
3.57786e-44
-1.63333e-43
-2.74055e-43
5.97756e-43
1.83603e-42
-1.0498e-42
-9.85371e-42
-7.31119e-42
3.55761e-41
8.65532e-41
-2.03993e-41
-4.2118e-40
-6.9754e-40
4.34313e-40
3.89426e-39
6.89047e-39
1.86774e-40
-2.74407e-38
-7.2015e-38
-8.88966e-38
2.16869e-38
3.92817e-37
1.12332e-36
2.18991e-36
3.39483e-36
4.4009e-36
4.85907e-36
4.57079e-36
3.59399e-36
2.22696e-36
8.75644e-37
-1.21114e-37
-6.14616e-37
-6.62792e-37
-4.51842e-37
-1.83118e-37
1.10502e-38
9.15388e-38
8.62788e-38
4.56463e-38
8.43832e-39
-9.9467e-39
-1.19927e-38
-6.74507e-39
-1.37891e-39
1.26748e-39
-1.0349e-65
1.49218e-65
-1.06809e-64
5.6722e-64
-2.95474e-63
1.47815e-62
-7.09813e-62
3.26469e-61
-1.43437e-60
6.00023e-60
-2.37981e-59
8.90082e-59
-3.11648e-58
1.01104e-57
-2.99201e-57
7.86706e-57
-1.7437e-56
2.81883e-56
-1.06515e-56
-1.4064e-55
6.66354e-55
-1.8112e-54
2.84522e-54
7.99795e-55
-2.11413e-53
6.98599e-53
-1.04823e-52
-9.40731e-53
9.45261e-52
-2.2529e-51
6.64783e-52
1.18584e-50
-3.4698e-50
1.42471e-50
1.72758e-49
-4.60949e-49
-6.48543e-50
2.79523e-48
-4.6005e-48
-8.37742e-48
3.86982e-47
-6.27387e-48
-2.07734e-46
2.65431e-46
8.78784e-46
-2.18514e-45
-3.17957e-45
1.35228e-44
1.07918e-44
-7.44561e-44
-4.24729e-44
3.86621e-43
2.47441e-43
-1.90849e-42
-1.8901e-42
8.60967e-42
1.44705e-41
-3.14756e-41
-9.68757e-41
5.50025e-41
5.19406e-40
3.87228e-40
-1.87196e-39
-4.56582e-39
1.05099e-39
2.2167e-38
3.68139e-38
-2.2618e-38
-2.04809e-37
-3.63308e-37
-1.22711e-38
1.44002e-36
3.78782e-36
4.6886e-36
-1.09963e-36
-2.05732e-35
-5.89314e-35
-1.14958e-34
-1.78265e-34
-2.31132e-34
-2.55213e-34
-2.40069e-34
-1.88746e-34
-1.16919e-34
-4.59261e-35
6.42751e-36
3.23317e-35
3.48372e-35
2.37346e-35
9.60672e-36
-5.94667e-37
-4.81815e-36
-4.53576e-36
-2.39704e-36
-4.40945e-37
5.24428e-37
6.30837e-37
3.54339e-37
7.21099e-38
-6.68016e-38
4.89556e-64
-7.32864e-64
5.19911e-63
-2.77725e-62
1.45198e-61
-7.28845e-61
3.51048e-60
-1.61898e-59
7.13067e-59
-2.9896e-58
1.1882e-57
-4.45265e-57
1.5619e-56
-5.07613e-56
1.50491e-55
-3.96468e-55
8.80905e-55
-1.43031e-54
5.64215e-55
7.0395e-54
-3.35735e-53
9.15738e-53
-1.44572e-52
-3.79368e-53
1.06489e-51
-3.53426e-51
5.3305e-51
4.67875e-51
-4.77556e-50
1.14265e-49
-3.47376e-50
-5.98923e-49
1.75938e-48
-7.34849e-49
-8.73424e-48
2.33872e-47
3.13393e-48
-1.41549e-46
2.3374e-46
4.23253e-46
-1.96247e-45
3.25303e-46
1.05272e-44
-1.34838e-44
-4.45166e-44
1.10867e-43
1.61043e-43
-6.85816e-43
-5.46762e-43
3.7754e-42
2.15425e-42
-1.96014e-41
-1.25643e-41
9.67359e-41
9.59803e-41
-4.36182e-40
-7.34436e-40
1.59279e-39
4.91303e-39
-2.76833e-39
-2.63138e-38
-1.97177e-38
9.46551e-38
2.31498e-37
-5.19235e-38
-1.12115e-36
-1.8675e-36
1.13088e-36
1.03506e-35
1.8411e-35
7.53575e-37
-7.26033e-35
-1.91449e-34
-2.37678e-34
5.33416e-35
1.03503e-33
2.97028e-33
5.79806e-33
8.99403e-33
1.16634e-32
1.28795e-32
1.21152e-32
9.52403e-33
5.89785e-33
2.31413e-33
-3.27986e-34
-1.63438e-33
-1.75947e-33
-1.19792e-33
-4.84201e-34
3.07894e-35
2.43712e-34
2.29127e-34
1.20945e-34
2.21293e-35
-2.65748e-35
-3.18873e-35
-1.78858e-35
-3.62193e-36
3.38374e-36
-2.19824e-62
3.44191e-62
-2.41658e-61
1.29971e-60
-6.82352e-60
3.4385e-59
-1.66183e-58
7.68758e-58
-3.39528e-57
1.42708e-56
-5.68493e-56
2.13495e-55
-7.50418e-55
2.44363e-54
-7.25891e-54
1.91643e-53
-4.26938e-53
6.96494e-53
-2.87145e-53
-3.37739e-52
1.62244e-51
-4.44206e-51
7.05055e-51
1.70918e-51
-5.14449e-50
1.71553e-49
-2.6018e-49
-2.22891e-49
2.3146e-48
-5.56151e-48
1.74408e-48
2.90192e-47
-8.5609e-47
3.64069e-47
4.2366e-46
-1.13874e-45
-1.44414e-46
6.87794e-45
-1.1398e-44
-2.0515e-44
9.55039e-44
-1.62044e-44
-5.11922e-43
6.57405e-43
2.16389e-42
-5.39815e-42
-7.8268e-42
3.3378e-41
2.65814e-41
-1.83709e-40
-1.04856e-40
9.53648e-40
6.12285e-40
-4.70519e-39
-4.67767e-39
2.12044e-38
3.57731e-38
-7.73359e-38
-2.39108e-37
1.33627e-37
1.27919e-36
9.63773e-37
-4.59201e-36
-1.12636e-35
2.45507e-36
5.44054e-35
9.09138e-35
-5.4192e-35
-5.01855e-34
-8.95295e-34
-4.3534e-35
3.51116e-33
9.2835e-33
1.15619e-32
-2.46926e-33
-4.9938e-32
-1.43596e-31
-2.80507e-31
-4.35285e-31
-5.64582e-31
-6.23501e-31
-5.86493e-31
-4.61e-31
-2.85381e-31
-1.11841e-31
1.60678e-32
7.9265e-32
8.52495e-32
5.79988e-32
2.34083e-32
-1.53144e-33
-1.18276e-32
-1.1104e-32
-5.85375e-33
-1.06481e-33
1.29222e-33
1.54638e-33
8.66052e-34
1.74438e-34
-1.64466e-34
9.32426e-61
-1.54212e-60
1.06964e-59
-5.79921e-59
3.05946e-58
-1.54864e-57
7.51392e-57
-3.48803e-56
1.54533e-55
-6.51355e-55
2.60145e-54
-9.79299e-54
3.4499e-53
-1.12585e-52
3.35164e-52
-8.86932e-52
1.98159e-51
-3.24925e-51
1.40176e-51
1.55027e-50
-7.5066e-50
2.06368e-49
-3.29449e-49
-7.28061e-50
2.37942e-48
-7.97565e-48
1.21684e-47
1.01503e-47
-1.07435e-46
2.59321e-46
-8.39988e-47
-1.34649e-45
3.99056e-45
-1.72971e-45
-1.96813e-44
5.31191e-44
6.32608e-45
-3.20123e-43
5.32534e-43
9.52267e-43
-4.45245e-42
7.74208e-43
2.38467e-41
-3.07097e-41
-1.00755e-40
2.51806e-40
3.64367e-40
-1.55624e-39
-1.23789e-39
8.56355e-39
4.88939e-39
-4.44467e-38
-2.85872e-38
2.19235e-37
2.18416e-37
-9.87433e-37
-1.66936e-36
3.59655e-36
1.11481e-35
-6.17484e-36
-5.95676e-35
-4.5143e-35
2.1336e-34
5.25002e-34
-1.10853e-34