/*--------------------------------*- C++ -*----------------------------------*\
  =========                 |
  \\      /  F ield         | OpenFOAM: The Open Source CFD Toolbox
   \\    /   O peration     | Website:  https://openfoam.org
    \\  /    A nd           | Version:  13
     \\/     M anipulation  |
\*---------------------------------------------------------------------------*/
FoamFile
{
    format      ascii;
    class       volScalarField;
    location    "6.3";
    object      T;
}
// * * * * * * * * * * * * * * * * * * * * * * * * * * * * * * * * * * * * * //

dimensions      [0 0 0 1 0 0 0];

internalField   nonuniform List<scalar> 
10000
(
-3.43833e-60
-6.65347e-60
1.93892e-60
3.50336e-59
1.56674e-58
4.5993e-58
4.89793e-58
-1.60442e-57
-7.104e-57
-1.3242e-56
-3.11105e-56
-1.24882e-55
-2.5216e-55
5.16224e-55
4.4234e-54
9.46209e-54
-5.99706e-54
-6.95337e-53
-7.38681e-53
3.66787e-52
1.33724e-51
1.15238e-51
-4.61358e-51
-2.05163e-50
-5.16118e-51
2.14462e-49
3.20853e-49
-1.6275e-48
-1.33648e-48
1.8911e-47
-1.12985e-47
-2.74068e-46
9.72451e-47
2.87481e-45
-8.14212e-46
-2.64395e-44
9.28222e-45
2.45957e-43
-1.23035e-44
-2.06912e-42
-8.59584e-43
1.55493e-41
1.60789e-41
-1.02103e-40
-1.99682e-40
5.04892e-40
1.81365e-39
-1.22756e-39
-1.26244e-38
-8.66594e-39
6.14415e-38
1.36864e-37
-1.27785e-37
-9.27891e-37
-8.90223e-37
3.0867e-36
9.9389e-36
4.23492e-36
-3.72121e-35
-9.42438e-35
-3.64395e-35
3.16672e-34
8.50716e-34
6.87631e-34
-1.64993e-33
-6.49404e-33
-9.94909e-33
-2.28828e-33
2.74794e-32
7.83441e-32
1.20253e-31
8.68282e-32
-1.07328e-31
-5.22035e-31
-1.13856e-30
-1.83287e-30
-2.40289e-30
-2.64733e-30
-2.45911e-30
-1.8829e-30
-1.101e-30
-3.50272e-31
1.81048e-31
4.18162e-31
4.04465e-31
2.54739e-31
8.6689e-32
-2.62232e-32
-6.66014e-32
-5.5858e-32
-2.65717e-32
-2.38174e-33
8.37075e-33
8.51421e-33
4.3917e-33
6.70953e-34
-1.09974e-33
-1.4685e-33
-1.41043e-33
-1.38003e-33
1.03118e-59
1.32491e-59
-9.70378e-59
-4.75348e-58
-5.75155e-58
2.47468e-57
1.19913e-56
1.61486e-56
-3.36051e-56
-1.74918e-55
-2.32643e-55
2.40938e-55
9.45411e-55
-4.29454e-55
-7.06923e-55
3.23844e-53
1.3017e-52
4.03342e-53
-1.12334e-51
-3.50646e-51
-1.45121e-51
1.83437e-50
5.48792e-50
4.61005e-50
-1.36733e-49
-6.09131e-49
-1.37881e-48
-1.32572e-48
6.19475e-48
2.83988e-47
1.1385e-47
-1.85824e-46
-2.98383e-46
7.0089e-46
1.04084e-45
-5.54433e-45
-2.81631e-45
4.84694e-44
-8.41857e-45
-4.87723e-43
-8.6405e-44
4.1808e-42
3.65638e-42
-2.92985e-41
-5.4985e-41
1.44516e-40
5.20013e-40
-3.01308e-40
-3.49073e-39
-2.63173e-39
1.63168e-38
3.71603e-38
-3.35384e-38
-2.45476e-37
-2.17475e-37
8.80786e-37
2.66695e-36
8.05822e-37
-1.08287e-35
-2.57384e-35
-7.13786e-36
9.27795e-35
2.35766e-34
1.73896e-34
-4.86438e-34
-1.78079e-33
-2.55016e-33
-1.15153e-34
8.26104e-33
2.16772e-32
3.12478e-32
1.83676e-32
-4.08969e-32
-1.63438e-31
-3.42773e-31
-5.41111e-31
-7.00278e-31
-7.65906e-31
-7.10389e-31
-5.46461e-31
-3.24804e-31
-1.11424e-31
4.19178e-32
1.14536e-31
1.16156e-31
7.55839e-32
2.66046e-32
-6.78883e-33
-1.8566e-32
-1.58359e-32
-7.74697e-33
-7.62286e-34
2.3319e-33
2.4457e-33
1.2723e-33
1.97947e-34
-2.99163e-34
-4.12807e-34
-4.03856e-34
-3.92936e-34
5.44993e-59
1.76058e-58
-5.86225e-59
-1.52048e-57
-3.98958e-57
-6.42637e-58
2.32252e-56
5.64891e-56
-5.45338e-57
-2.47975e-55
-1.01563e-55
1.89168e-54
3.88534e-54
-8.17124e-54
-4.31312e-53
8.54882e-55
3.90318e-52
7.66165e-52
-1.92897e-51
-1.17117e-50
-1.57301e-50
3.85887e-50
1.81523e-49
1.86803e-49
-5.62412e-49
-2.41918e-48
-4.00311e-48
-4.90424e-49
2.01921e-47
7.2794e-47
1.0194e-46
-1.24951e-46
-6.60283e-46
-6.36694e-46
-4.66103e-46
-6.03793e-45
-1.50024e-44
-2.61305e-45
-2.24732e-44
-1.72074e-43
4.57178e-43
3.70417e-42
3.69408e-42
-1.78545e-41
-3.39848e-41
1.06543e-40
3.94749e-40
-6.93663e-41
-2.23864e-39
-2.4459e-39
8.23263e-39
2.1771e-38
-1.51085e-38
-1.31234e-37
-1.11881e-37
4.90346e-37
1.37818e-36
1.12718e-39
-6.96009e-36
-1.49208e-35
-9.29621e-37
6.43234e-35
1.55218e-34
1.09303e-34
-3.33886e-34
-1.18835e-33
-1.64026e-33
1.35523e-34
5.86787e-33
1.47473e-32
2.09651e-32
1.27467e-32
-2.57438e-32
-1.06971e-31
-2.26966e-31
-3.57026e-31
-4.53566e-31
-4.82572e-31
-4.38155e-31
-3.3793e-31
-2.05776e-31
-7.25755e-32
2.39013e-32
6.91687e-32
7.32382e-32
4.83719e-32
1.64195e-32
-4.85757e-33
-1.17017e-32
-1.00483e-32
-5.30796e-33
-5.88599e-34
1.82915e-33
1.95848e-33
8.9865e-34
4.66957e-35
-2.56782e-34
-3.39119e-34
-3.72177e-34
-3.64399e-34
6.95428e-59
5.09144e-58
8.57791e-58
-6.82114e-58
-8.31336e-57
-2.31006e-56
-2.58676e-56
3.04519e-56
1.90975e-55
5.76873e-55
1.81587e-54
4.6039e-54
3.5923e-54
-2.68047e-53
-1.25932e-52
-2.18607e-52
1.9288e-52
1.81212e-51
2.63518e-51
-6.61586e-51
-3.10809e-50
-2.53268e-50
9.72412e-50
1.73146e-49
-4.7613e-49
-1.70765e-48
-1.11891e-49
5.8891e-48
3.80322e-48
5.40284e-48
1.78923e-46
7.48206e-46
9.49886e-46
-2.39115e-45
-1.26864e-44
-2.35936e-44
-1.04797e-44
4.04028e-44
5.46475e-44
-4.14806e-44
3.21615e-43
2.80388e-42
7.66454e-42
1.00779e-41
8.83458e-42
2.35753e-41
5.72767e-41
4.59784e-42
-2.41363e-40
-4.85528e-40
-6.3791e-40
-1.39455e-39
-1.7836e-39
4.24755e-40
-1.6751e-38
-1.21501e-37
-3.05111e-37
-2.39387e-37
4.96647e-37
1.61876e-36
3.21722e-36
9.52309e-36
2.17888e-35
3.50973e-37
-1.69825e-34
-5.81465e-34
-9.82688e-34
-4.30047e-34
2.50903e-33
8.42891e-33
1.50209e-32
1.62416e-32
4.11011e-33
-2.87998e-32
-8.65386e-32
-1.60652e-31
-2.20325e-31
-2.30641e-31
-1.93837e-31
-1.41472e-31
-8.11122e-32
-1.45918e-32
2.33782e-32
2.52672e-32
1.72982e-32
7.3798e-33
3.52007e-33
1.86913e-33
-1.44593e-33
-3.04097e-33
-2.88498e-33
-1.48118e-33
6.92634e-34
1.03506e-33
3.87815e-34
-1.9905e-35
-1.51263e-34
-2.03317e-34
-2.7199e-34
-2.78174e-34
-1.76813e-58
-5.80239e-58
1.23313e-57
1.02978e-56
1.84697e-56
-3.66618e-56
-2.51423e-55
-4.50922e-55
3.2834e-55
3.24294e-54
6.0197e-54
1.32074e-56
-1.64608e-53
-1.5621e-53
-5.54648e-53
-7.0278e-52
-2.57298e-51
-9.43349e-52
2.21142e-50
7.15995e-50
3.09334e-50
-3.8494e-49
-1.12182e-48
-6.54762e-49
4.09188e-48
1.48136e-47
2.5297e-47
1.93221e-48
-1.46878e-46
-4.35894e-46
-1.50225e-46
2.50976e-45
6.66399e-45
2.15115e-46
-3.2015e-44
-4.9333e-44
9.38375e-44
4.45029e-43
4.30045e-43
-1.17272e-42
-4.39388e-42
-4.33566e-42
1.18439e-41
5.66365e-41
9.08407e-41
-7.49534e-41
-6.86377e-40
-1.26518e-39
3.65704e-40
6.15532e-39
1.09711e-38
-4.01611e-40
-3.89723e-38
-9.61524e-38
-1.52825e-37
-1.00426e-37
6.06261e-37
2.97414e-36
6.28273e-36
3.65981e-36
-1.67436e-35
-5.49651e-35
-8.38066e-35
-9.30632e-35
-2.2061e-34
-8.24302e-34
-2.09136e-33
-2.83047e-33
4.77814e-34
1.09426e-32
2.46526e-32
3.11353e-32
2.70813e-32
1.66878e-32
-2.01987e-32
-1.29731e-31
-3.04976e-31
-4.41086e-31
-4.34533e-31
-2.91547e-31
-1.01662e-31
4.0374e-32
8.81025e-32
6.52981e-32
2.13876e-32
-3.10769e-33
5.41467e-33
1.2401e-32
7.75307e-34
-4.41591e-33
-2.87319e-33
-3.04787e-33
-1.06214e-33
-7.55971e-34
2.26465e-35
4.59657e-34
1.82459e-34
2.12759e-34
3.35254e-34
2.98571e-34
-8.33567e-58
-7.52657e-57
-8.45325e-57
3.42395e-56
1.4384e-55
1.28429e-55
-5.01883e-55
-1.54262e-54
-3.62112e-55
4.50331e-54
-1.16978e-54
-4.29544e-53
-5.55228e-53
2.45067e-52
7.94444e-52
-1.01671e-51
-1.02569e-50
-1.55971e-50
5.19313e-50
2.63602e-49
2.88749e-49
-1.02553e-48
-3.987e-48
-2.6815e-48
1.64408e-47
5.45299e-47
6.36866e-47
-5.68583e-47
-4.13627e-46
-1.01792e-45
-1.27151e-45
1.02028e-45
7.6988e-45
1.21628e-44
7.21674e-45
5.65762e-44
3.59205e-43
9.37052e-43
6.42227e-43
-3.71539e-42
-1.55089e-41
-2.87898e-41
-8.26526e-42
1.05299e-40
2.35441e-40
-1.83555e-40
-2.05302e-39
-4.4205e-39
-6.29564e-40
2.02523e-38
5.39944e-38
4.1573e-38
-1.39954e-37
-5.07278e-37
-5.08294e-37
1.25079e-36
5.65787e-36
9.57733e-36
3.94375e-36
-2.08258e-35
-6.52506e-35
-1.18354e-34
-1.61679e-34
-1.82054e-34
-2.57956e-34
-7.25408e-34
-1.92017e-33
-2.77502e-33
-1.73557e-34
5.38384e-33
1.41131e-33
-2.2513e-32
-3.42114e-32
3.16811e-32
1.59238e-31
1.78613e-31
-7.56728e-32
-5.05637e-31
-7.4823e-31
-5.64726e-31
-1.82017e-31
3.89654e-32
1.04659e-31
1.31548e-31
1.00511e-31
5.78592e-32
3.17809e-32
1.27943e-32
-1.20172e-32
-1.14725e-32
1.93791e-33
8.29315e-34
-3.55683e-33
-4.517e-33
-3.99106e-34
1.50171e-33
1.01403e-33
1.43084e-33
2.17363e-33
2.08381e-33
-1.00631e-57
-1.5294e-56
-2.93263e-56
1.52994e-56
2.15402e-55
5.04248e-55
5.17298e-55
3.22524e-55
-5.60793e-56
-1.13892e-53
-6.88949e-53
-1.62126e-52
1.92514e-53
1.15912e-51
2.95874e-51
8.45303e-52
-1.37267e-50
-3.31638e-50
1.40283e-50
2.48022e-49
4.91063e-49
-3.27728e-49
-3.05526e-48
-2.84116e-48
1.28072e-47
3.7781e-47
8.84109e-48
-1.01786e-46
-5.23071e-47
1.42727e-46
-2.17951e-45
-1.2314e-44
-2.20309e-44
2.24507e-44
2.00123e-43
4.43401e-43
3.65377e-43
-4.00405e-43
-1.58683e-42
-3.81582e-42
-1.32625e-41
-3.97263e-41
-7.26038e-41
-5.85257e-41
1.14945e-41
-1.75432e-40
-1.37258e-39
-3.39535e-39
-1.23961e-40
2.64377e-38
8.72099e-38
9.33919e-38
-2.36283e-37
-1.00263e-36
-8.6583e-37
3.36325e-36
1.16311e-35
1.09626e-35
-1.97952e-35
-7.25689e-35
-8.22193e-35
3.36528e-36
1.15857e-34
2.28394e-34
8.61401e-34
3.11707e-33
7.00189e-33
8.09222e-33
-4.80344e-33
-4.61264e-32
-1.1977e-31
-1.9531e-31
-1.82955e-31
6.47779e-32
6.58144e-31
1.44257e-30
1.87036e-30
1.45145e-30
5.21092e-31
-6.71137e-32
-1.96954e-31
-2.92443e-31
-2.51871e-31
-2.77858e-32
1.16696e-31
1.54063e-31
3.66219e-32
-5.49511e-32
-4.37593e-32
-4.01389e-33
2.27489e-32
1.87891e-32
-3.2515e-33
-6.23856e-33
-5.09112e-34
1.34518e-33
1.31447e-33
2.18429e-33
3.22837e-33
3.12844e-33
1.67076e-57
2.7814e-56
2.60767e-56
-2.02626e-55
-7.46783e-55
-2.89358e-55
4.94321e-54
1.55284e-53
1.04366e-53
-6.22186e-53
-2.0959e-52
-1.96896e-52
4.62333e-52
1.79368e-51
3.49698e-51
1.09379e-50
3.52219e-50
1.8944e-50
-3.17864e-49
-1.1471e-48
-6.78772e-49
6.24009e-48
1.95504e-47
1.01407e-47
-8.49877e-47
-2.78499e-46
-3.56663e-46
2.77799e-46
2.47723e-45
5.45506e-45
4.07034e-46
-3.15158e-44
-7.75743e-44
-6.67924e-45
3.20617e-43
4.08894e-43
-1.30569e-42
-5.38111e-42
-6.5872e-42
8.34325e-42
5.16177e-41
8.28829e-41
-1.32027e-40
-9.96797e-40
-1.9586e-39
5.72457e-40
1.08473e-38
2.08479e-38
3.44909e-39
-4.71923e-38
-5.59032e-38
2.8791e-38
-6.78485e-38
-6.67238e-37
-3.7993e-37
4.17911e-36
8.85805e-36
-1.38774e-35
-9.13482e-35
-1.36246e-34
1.41981e-34
9.59538e-34
1.8664e-33
2.15185e-33
3.46282e-33
1.11631e-32
2.55874e-32
2.36541e-32
-3.77044e-32
-1.574e-31
-2.24849e-31
-1.30111e-31
-1.51011e-33
-5.52285e-32
4.71459e-32
1.13458e-30
3.1064e-30
4.29535e-30
3.38631e-30
1.15603e-30
-7.14008e-31
-1.34738e-30
-9.51284e-31
-4.69193e-31
-2.14969e-31
1.80969e-32
-1.06234e-31
-2.42568e-31
-8.69772e-32
2.47786e-32
3.16265e-32
3.32672e-32
6.44504e-33
4.78865e-33
1.61167e-34
-3.06471e-33
-1.87327e-33
-3.08096e-33
-4.55303e-33
-4.17253e-33
8.46791e-57
2.01284e-55
3.38856e-55
-6.15199e-55
-3.75546e-54
-4.99599e-54
8.80623e-54
3.80353e-53
2.50892e-53
-7.8654e-53
-8.50881e-54
7.00206e-52
6.96797e-52
-4.69317e-51
-1.00645e-50
3.78423e-50
2.11982e-49
2.38893e-49
-1.11674e-48
-4.74622e-48
-4.23906e-48
1.97996e-47
6.9518e-47
4.20459e-47
-2.83262e-46
-8.95922e-46
-9.51712e-46
1.07002e-45
5.73604e-45
1.07939e-44
1.00296e-44
-6.43186e-45
-4.42393e-44
-1.23364e-43
-4.67861e-43
-1.78446e-42
-4.66577e-42
-7.36931e-42
-2.19522e-42
3.71478e-41
1.73057e-40
3.68242e-40
-6.90042e-41
-2.56532e-39
-5.5234e-39
3.14653e-39
3.9474e-38
7.79658e-38
2.13123e-39
-3.16419e-37
-7.3091e-37
-5.54578e-37
1.14537e-36
4.32592e-36
6.26938e-36
-1.72104e-37
-3.07577e-35
-1.10022e-34
-2.07548e-34
-2.85451e-35
1.09638e-33
3.38336e-33
4.85194e-33
2.29792e-33
-1.16215e-33
8.29665e-33
3.26335e-32
2.24173e-32
-8.57081e-32
-1.87187e-31
6.47382e-32
7.22862e-31
6.62943e-31
-1.98288e-30
-7.27297e-30
-1.16755e-29
-1.07938e-29
-4.83022e-30
3.963e-31
3.48603e-31
-2.18379e-30
-2.34864e-30
-8.7431e-31
-4.90817e-31
-7.36582e-31
-5.46601e-31
-2.36165e-31
-2.22762e-31
-2.63742e-32
1.17029e-32
-9.13835e-32
-4.00489e-32
1.87182e-32
2.8988e-32
9.27684e-35
-1.09615e-32
-8.69971e-33
-1.86376e-32
-2.69626e-32
-2.47085e-32
1.61417e-56
3.0686e-55
5.8064e-55
-2.76802e-55
-3.68482e-54
-7.85846e-54
-1.02731e-53
-2.87334e-53
-6.44422e-53
2.14367e-52
1.72833e-51
3.80327e-51
-2.06779e-51
-2.94339e-50
-5.34352e-50
4.97751e-50
3.68195e-49
3.90105e-49
-1.30734e-48
-4.78978e-48
-3.31054e-48
1.5145e-47
4.12205e-47
1.38961e-47
-1.15038e-46
-2.34931e-46
-2.85543e-46
-1.00882e-45
-3.07084e-45
-1.90079e-46
3.14534e-44
1.14495e-43
1.363e-43
-3.81102e-43
-1.95288e-42
-3.29428e-42
-1.66521e-43
9.45045e-42
2.17074e-41
5.24983e-41
1.6344e-40
3.42696e-40
2.27759e-40
-8.55293e-40
-2.49451e-39
1.82228e-39
3.22828e-38
9.70964e-38
3.94084e-38
-6.67259e-37
-2.32798e-36
-2.46912e-36
5.96695e-36
2.50628e-35
2.68167e-35
-4.95501e-35
-2.09825e-34
-2.62465e-34
1.45545e-34
1.14141e-33
2.12512e-33
1.60937e-33
-2.00666e-33
-7.53842e-33
-7.59455e-33
3.63566e-33
1.86491e-33
-7.70038e-32
-2.38569e-31
-2.42606e-31
3.7753e-31
1.72699e-30
2.56241e-30
4.603e-32
-7.94434e-30
-1.78052e-29
-1.86642e-29
-3.28814e-30
1.77282e-29
2.56408e-29
1.87311e-29
8.83071e-30
1.15326e-30
-3.14654e-30
-4.20409e-30
-3.7818e-30
-9.07282e-31
8.59478e-31
9.43812e-31
4.07444e-31
-9.2987e-32
-1.63975e-31
-2.83206e-32
-2.32493e-32
-4.24435e-32
-3.31157e-32
-9.88126e-33
-2.11053e-32
-3.21978e-32
-2.79374e-32
9.32083e-57
-6.41423e-55
-1.22911e-54
2.91955e-54
1.81855e-53
2.38946e-53
-7.45349e-53
-3.67334e-52
-4.90585e-52
9.09201e-52
4.90737e-51
6.95746e-51
-7.47548e-51
-4.83528e-50
-9.38135e-50
-1.54731e-49
-4.27406e-49
-5.79533e-49
3.13974e-48
1.68987e-47
2.30931e-47
-6.55392e-47
-3.17188e-46
-3.12062e-46
1.24659e-45
4.73665e-45
4.50838e-45
-1.15046e-44
-4.08966e-44
-3.46298e-44
6.85774e-44
1.78313e-43
-1.69576e-44
-3.79109e-43
1.36957e-42
1.0027e-41
2.60568e-41
3.1622e-41
-5.00535e-42
-7.49524e-41
-5.50971e-41
3.69457e-40
1.8447e-39
4.57014e-39
4.32755e-39
-1.05075e-38
-4.91202e-38
-1.23309e-37
-3.35716e-37
-8.22463e-37
-7.38189e-37
3.37027e-36
1.42597e-35
1.79597e-35
-2.94663e-35
-1.44933e-34
-1.5341e-34
3.12755e-34
1.0182e-33
-2.18247e-34
-6.19238e-33
-1.24809e-32
-1.01645e-33
3.734e-32
4.11408e-32
-1.37068e-31
-5.47512e-31
-8.20037e-31
-2.10205e-31
1.55704e-30
3.60532e-30
5.52788e-30
1.04839e-29
2.34408e-29
4.27662e-29
5.87942e-29
6.84189e-29
8.22708e-29
1.03688e-28
1.13896e-28
9.52909e-29
5.42059e-29
1.46062e-29
-3.27668e-30
-7.04377e-30
-9.54849e-30
-4.8859e-30
5.59389e-31
1.23861e-30
6.0785e-31
4.7521e-31
3.29908e-31
2.18669e-31
3.5351e-32
-6.1527e-32
-1.08181e-31
-5.70006e-32
-1.83883e-32
-1.92296e-33
-2.36668e-33
-1.05447e-55
-3.68962e-54
-6.94538e-54
9.49225e-54
7.25764e-53
1.21174e-52
-1.11163e-52
-7.98469e-52
-1.09232e-51
5.00424e-52
1.81967e-51
-2.50971e-51
4.30771e-51
6.72071e-50
4.08945e-50
-8.71931e-49
-3.44331e-48
-3.56106e-48
1.46211e-47
6.33671e-47
7.37967e-47
-1.84477e-46
-8.31348e-46
-8.79669e-46
2.34907e-45
9.58721e-45
1.06302e-44
-1.46982e-44
-5.81178e-44
-4.52747e-44
6.98263e-45
-3.21084e-43
-9.02577e-43
2.65006e-42
1.86774e-41
4.01479e-41
2.23199e-41
-8.24444e-41
-2.47154e-40
-2.53846e-40
7.78431e-40
3.95202e-39
4.36882e-39
-1.30341e-38
-3.63021e-38
1.19684e-38
1.08559e-38
-8.61256e-37
-2.71486e-36
4.57448e-37
2.01484e-35
4.2625e-35
-1.33099e-35
-2.16682e-34
-3.29654e-34
3.00762e-34
1.78726e-33
1.77387e-33
-4.6531e-33
-1.85826e-32
-2.31985e-32
2.38127e-32
1.45149e-31
1.99211e-31
-2.36031e-31
-1.47507e-30
-2.49258e-30
1.91137e-33
9.29733e-30
2.2219e-29
2.4349e-29
-2.94016e-30
-6.34771e-29
-1.36057e-28
-1.96632e-28
-2.56071e-28
-3.49896e-28
-4.61214e-28
-4.92089e-28
-3.81196e-28
-2.01925e-28
-5.61318e-29
4.04834e-29
9.54638e-29
9.53334e-29
5.63724e-29
1.69437e-29
-3.55927e-30
-1.39291e-29
-1.39219e-29
-6.47349e-30
-3.09448e-31
2.07524e-30
2.31952e-30
1.31383e-30
2.41617e-31
-2.57632e-31
-2.9368e-31
-2.31159e-31
-2.42083e-31
-6.09229e-55
-5.87381e-54
-8.50647e-54
1.31845e-53
8.15305e-53
1.47605e-52
8.65654e-53
-8.24935e-54
-5.96798e-53
-3.72533e-51
-2.18855e-50
-4.37018e-50
4.85813e-50
4.2459e-49
6.44579e-49
-1.10032e-48
-5.56237e-48
-5.39569e-48
1.23131e-47
3.51979e-47
2.08756e-47
3.99182e-47
2.99314e-46
2.55624e-47
-4.10083e-45
-1.2424e-44
-3.19666e-45
6.72724e-44
1.63256e-43
9.16961e-45
-7.13073e-43
-1.42772e-42
5.62289e-43
1.17459e-41
3.94435e-41
4.032e-41
-2.00698e-40
-8.37272e-40
-6.57208e-40
3.01596e-39
6.60861e-39
-6.74117e-39
-3.13014e-38
1.6592e-38
1.24595e-37
-2.62423e-37
-1.65375e-36
-1.39617e-36
7.17433e-36
2.11094e-35
7.19733e-36
-6.32046e-35
-7.76798e-35
2.39353e-34
7.139e-34
-3.32652e-34
-4.91535e-33
-8.62065e-33
5.70056e-33
5.0866e-32
8.25595e-32
-3.13297e-32
-4.01234e-31
-8.45715e-31
-6.37736e-31
1.55738e-30
7.33784e-30
1.66425e-29
2.25724e-29
5.65857e-30
-6.25464e-29
-1.9974e-28
-3.86074e-28
-5.54643e-28
-6.34759e-28
-6.52707e-28
-7.60585e-28
-1.03587e-27
-1.27957e-27
-1.23929e-27
-9.47439e-28
-5.70439e-28
-2.04493e-28
2.73922e-29
9.90824e-29
1.07243e-28
7.13283e-29
3.86062e-29
9.2872e-30
-1.13256e-29
-1.43766e-29
-9.14971e-30
-3.68904e-30
8.44613e-31
2.14251e-30
1.95542e-30
9.34649e-31
3.73286e-31
2.51553e-31
2.28968e-31
-1.44201e-54
4.41119e-54
1.95311e-53
-2.76327e-54
-1.70483e-52
-3.47916e-52
4.96506e-52
3.68836e-51
6.0485e-51
-6.7487e-51
-5.19571e-50
-1.03542e-49
-1.76511e-50
4.83798e-49
1.70129e-48
4.02459e-48
7.74047e-48
4.04072e-48
-5.83365e-47
-2.65353e-46
-3.80351e-46
9.31995e-46
4.96806e-45
5.04353e-45
-2.14836e-44
-7.98003e-44
-5.43638e-44
2.84295e-43
7.46739e-43
2.27386e-44
-2.55664e-42
-1.72087e-42
1.0592e-41
2.24368e-41
4.39518e-43
-1.12442e-40
-6.48413e-40
-1.83734e-39
-6.04448e-41
1.13841e-38
1.0976e-38
-6.56197e-38
-1.23931e-37
2.87511e-37
8.15336e-37
-1.59378e-36
-6.83377e-36
4.45871e-36
5.19413e-35
4.7722e-35
-2.17953e-34
-5.37311e-34
4.44698e-34
3.57263e-33
3.48879e-33
-1.21035e-32
-3.84381e-32
-1.1742e-32
1.61752e-31
3.8494e-31
8.05379e-32
-1.51101e-30
-3.68521e-30
-2.07498e-30
1.01872e-29
3.31018e-29
4.42217e-29
-7.18637e-30
-1.71119e-28
-4.19377e-28
-5.48764e-28
-1.55676e-28
1.22223e-27
3.83203e-27
7.47317e-27
1.14222e-26
1.45461e-26
1.57082e-26
1.43759e-26
1.09359e-26
6.49793e-27
2.41121e-27
-4.33033e-28
-1.90992e-27
-2.14975e-27
-1.49321e-27
-6.374e-28
6.12266e-30
2.99666e-28
2.95192e-28
1.61303e-28
3.43456e-29
-3.04252e-29
-4.09495e-29
-2.50265e-29
-5.21232e-30
4.5406e-30
6.65741e-30
6.28964e-30
6.15477e-30
1.57282e-55
4.04682e-53
8.62516e-53
-7.79359e-53
-8.07751e-52
-1.57403e-51
5.52546e-52
8.46526e-51
1.61736e-50
1.08822e-50
-3.37621e-51
-6.96215e-50
-4.91721e-49
-1.21688e-48
1.54992e-48
1.79578e-47
4.8846e-47
3.76162e-47
-1.63354e-46
-6.56498e-46
-9.80792e-46
5.86463e-46
5.68257e-45
8.20142e-45
-1.25107e-44
-5.98225e-44
-4.45285e-44
1.67195e-43
4.91072e-43
4.59666e-43
-1.19675e-42
-3.66575e-42
1.43972e-41
5.80114e-41
-1.65529e-40
-1.04825e-39
-3.46541e-40
6.5706e-39
5.74944e-39
-4.1706e-38
-5.79852e-38
2.43759e-37
4.59973e-37
-1.54725e-36
-4.54677e-36
6.31527e-36
3.81552e-35
1.24619e-35
-1.98051e-34
-3.23606e-34
6.27508e-34
2.57333e-33
4.60671e-34
-1.27483e-32
-2.39165e-32
2.16316e-32
1.60722e-31
2.25235e-31
-2.49864e-31
-1.49277e-30
-2.20062e-30
1.07583e-30
1.10234e-29
2.20969e-29
1.36587e-29
-4.4765e-29
-1.6555e-28
-2.9401e-28
-2.60638e-28
2.23884e-28
1.48135e-27
3.64862e-27
6.38281e-27
8.78788e-27
9.97931e-27
1.004e-26
1.00914e-26
1.08604e-26
1.16017e-26
1.12539e-26
9.87281e-27
7.90429e-27
5.38569e-27
2.67602e-27
4.71465e-28
-8.74136e-28
-1.3332e-27
-1.16681e-27
-6.28006e-28
-1.08205e-28
1.63519e-28
2.08824e-28
1.43743e-28
4.68153e-29
-1.35093e-29
-2.88428e-29
-2.24607e-29
-1.50915e-29
-1.30108e-29
-1.28374e-29
1.13236e-53
8.91688e-53
9.93748e-53
-3.05708e-52
-1.36388e-51
-1.90944e-51
1.07133e-51
7.90073e-51
1.26989e-50
3.39197e-50
1.59037e-49
2.91703e-49
-6.70569e-49
-4.23218e-48
-5.43663e-48
1.49544e-47
6.81954e-47
1.05322e-46
7.74718e-47
8.64213e-47
-5.20293e-46
-5.92904e-45
-1.98039e-44
-1.30284e-44
1.12607e-43
3.8005e-43
2.315e-43
-1.5201e-42
-3.74479e-42
1.63175e-42
1.81213e-41
1.02092e-41
-5.72334e-41
-1.09192e-40
-3.70769e-40
-1.21937e-39
2.75365e-39
2.09836e-38
9.08392e-39
-1.35649e-37
-1.26315e-37
9.03227e-37
1.33533e-36
-5.52555e-36
-1.26346e-35
2.8585e-35
1.12221e-34
-5.98449e-35
-7.31978e-34
-4.67394e-34
3.60447e-33
6.96941e-33
-1.13968e-32
-5.67042e-32
-2.98539e-32
2.50402e-31
6.12729e-31
-7.07444e-32
-3.05866e-30
-5.82699e-30
1.72308e-30
2.93629e-29
5.74576e-29
7.91025e-30
-2.16004e-28
-5.56545e-28
-5.661e-28
5.96886e-28
3.56173e-27
7.43421e-27
8.31612e-27
-1.17658e-27
-3.01129e-26
-8.46599e-26
-1.61947e-25
-2.46144e-25
-3.11951e-25
-3.36413e-25
-3.10673e-25
-2.42331e-25
-1.50959e-25
-6.21254e-26
2.99511e-27
3.67564e-26
4.27292e-26
3.09162e-26
1.40945e-26
8.29746e-28
-5.29926e-27
-5.55778e-27
-3.24193e-27
-8.74987e-28
4.57539e-28
7.3093e-28
4.72304e-28
1.3477e-28
-5.68504e-29
-1.14728e-28
-1.17767e-28
-1.14768e-28
3.35318e-53
6.87308e-53
-1.48228e-52
-7.11303e-52
-6.07457e-52
2.28328e-51
6.77173e-51
1.40408e-51
-3.17051e-50
-7.02689e-50
1.0896e-49
1.07748e-48
2.53668e-48
-1.50785e-48
-2.57155e-47
-7.1278e-47
-6.80085e-47
1.69091e-46
9.66534e-46
2.63123e-45
2.58607e-45
-1.35489e-44
-6.21904e-44
-5.43046e-44
3.2344e-43
1.05308e-42
3.68163e-43
-4.29318e-42
-1.07484e-41
-5.67682e-42
5.76326e-41
1.95439e-40
-2.12346e-40
-2.19626e-39
-6.5286e-40
1.59475e-38
1.08788e-38
-1.08551e-37
-6.69003e-38
8.97043e-37
9.37386e-37
-6.15518e-36
-1.01611e-35
3.78829e-35
1.04332e-34
-1.52785e-34
-8.3302e-34
1.48544e-35
5.09026e-33
6.6608e-33
-1.95969e-32
-6.6085e-32
4.79142e-35
3.39275e-31
5.77851e-31
-6.19748e-31
-3.87524e-30
-4.62759e-30
7.96888e-30
3.63845e-29
4.43239e-29
-4.98257e-29
-2.86611e-28
-4.76218e-28
-7.70549e-29
1.51233e-27
4.02371e-27
5.1632e-27
4.91009e-28
-1.43627e-26
-3.94888e-26
-6.7259e-26
-8.31988e-26
-7.25529e-26
-2.97893e-26
3.50049e-26
9.77203e-26
1.29973e-25
1.13826e-25
5.41772e-26
-2.28988e-26
-8.62768e-26
-1.14088e-25
-1.00934e-25
-6.09798e-26
-1.7366e-26
1.29509e-26
2.34354e-26
1.93076e-26
9.60663e-27
1.04928e-27
-3.22506e-27
-3.59384e-27
-2.06076e-27
-4.66876e-28
3.43859e-28
5.14044e-28
4.39994e-28
3.85027e-28
3.79673e-28
3.32195e-53
-2.27846e-52
-7.53148e-52
-4.25424e-52
3.41888e-51
1.0798e-50
1.20222e-50
-9.08644e-51
-7.75696e-50
-2.77119e-49
-4.88136e-49
1.08706e-48
7.97737e-48
1.1817e-47
-3.43565e-47
-1.8134e-46
-3.16741e-46
-1.52809e-46
3.05275e-46
1.38072e-45
7.1063e-45
2.14869e-44
2.59367e-44
-3.46491e-45
2.62341e-44
1.15815e-43
-9.23534e-43
-4.67785e-42
-6.27693e-42
9.12606e-42
6.46783e-41
1.56983e-40
-1.9503e-40
-2.05303e-39
-1.15719e-39
1.48568e-38
1.11096e-38
-1.14145e-37
-6.26038e-38
9.61287e-37
5.30892e-37
-7.72929e-36
-5.68831e-36
6.24834e-35
9.28016e-35
-3.71377e-34
-9.60646e-34
1.59995e-33
8.01575e-33
-8.58782e-34
-5.03246e-32
-6.1325e-32
2.09168e-31
6.73622e-31
-6.87479e-32
-3.78267e-30
-6.5331e-30
6.87574e-30
4.58918e-29
6.07786e-29
-8.63075e-29
-4.6717e-28
-6.75755e-28
4.48542e-28
3.96792e-27
8.10683e-27
4.991e-27
-1.83235e-26
-6.83347e-26
-1.22096e-25
-1.0383e-25
1.1687e-25
6.85544e-25
1.68249e-24
3.03391e-24
4.47379e-24
5.60701e-24
6.06241e-24
5.65555e-24
4.4764e-24
2.86387e-24
1.26936e-24
6.45389e-26
-5.87552e-25
-7.32665e-25
-5.53058e-25
-2.68821e-25
-3.8559e-26
7.64495e-26
9.28204e-26
5.93593e-26
1.95817e-26
-4.89007e-27
-1.17193e-26
-8.49494e-27
-3.12579e-27
3.68028e-28
1.58898e-27
1.70361e-27
1.65498e-27
-8.60838e-53
-1.11602e-51
-1.29454e-51
3.62221e-51
1.4259e-50
1.10869e-50
-3.7891e-50
-8.81887e-50
7.05731e-50
4.83569e-49
-2.0494e-50
-3.89184e-48
-8.85707e-48
6.63089e-48
8.71883e-47
2.20058e-46
7.90112e-48
-2.01041e-45
-8.33217e-45
-1.63309e-44
6.3567e-45
1.56028e-43
4.66948e-43
2.81898e-43
-1.91751e-42
-4.75654e-42
-2.5414e-42
-2.68252e-42
1.92359e-41
2.24398e-40
5.50946e-42
-2.6962e-39
-1.32524e-40
2.87936e-38
3.60537e-39
-2.71033e-37
-6.80323e-38
2.35065e-36
1.20077e-36
-1.88744e-35
-1.89866e-35
1.30077e-34
2.18801e-34
-7.60933e-34
-2.11258e-33
3.16974e-33
1.69e-32
-1.1607e-33
-1.04084e-31
-1.2728e-31
4.18765e-31
1.31481e-30
-2.14486e-31
-7.14644e-30
-1.09351e-29
1.56754e-29
8.03625e-29
8.00022e-29
-2.02435e-28
-7.59239e-28
-7.40745e-28
1.50249e-27
6.28688e-27
8.62721e-27
-3.07711e-27
-3.82282e-26
-8.27476e-26
-7.88334e-26
6.43953e-26
4.04549e-25
8.60448e-25
1.14263e-24
8.13905e-25
-4.94432e-25
-2.80834e-24
-5.64937e-24
-8.11864e-24
-9.24991e-24
-8.50067e-24
-6.08014e-24
-2.84705e-24
1.30599e-25
2.01978e-24
2.52268e-24
1.95357e-24
9.51739e-25
7.66902e-26
-3.85312e-25
-4.49113e-25
-2.89367e-25
-9.07451e-26
3.61872e-26
7.18084e-26
5.17258e-26
1.86493e-26
-3.0093e-27
-1.02408e-26
-1.01661e-26
-9.23245e-27
-9.07435e-27
-4.29788e-52
-2.23995e-51
-5.42032e-52
1.29919e-50
3.16152e-50
-4.70099e-51
-1.86747e-49
-3.80479e-49
3.20427e-49
3.3016e-48
4.97273e-48
-1.53173e-47
-7.83643e-47
-6.79454e-47
4.49822e-46
1.71452e-45
1.69306e-45
-5.65275e-45
-2.5857e-44
-4.82622e-44
-1.01261e-44
2.64378e-43
9.28247e-43
9.65463e-43
-3.86646e-42
-1.62147e-41
-1.0723e-41
6.9943e-41
1.28481e-40
-2.42859e-40
-6.34209e-40
1.12186e-39
2.33036e-39
-5.58111e-39
5.38733e-39
7.56318e-38
-3.04506e-38
-6.74464e-37
-5.27992e-37
4.13366e-36
9.87465e-36
-2.00976e-35
-1.41293e-34
-1.23363e-34
1.00582e-33
2.81718e-33
-3.65893e-33
-2.85852e-32
-1.99001e-32
1.71782e-31
4.22732e-31
-4.15574e-31
-3.42105e-30
-3.61863e-30
1.36509e-29
4.74681e-29
1.92197e-29
-2.17433e-28
-5.70496e-28
-1.64967e-28
2.43315e-27
6.53485e-27
4.589e-27
-1.79507e-26
-6.5992e-26
-9.71263e-26
1.0388e-26
4.16123e-25
1.12838e-24
1.67466e-24
8.06012e-25
-3.4476e-24
-1.31139e-23
-2.90961e-23
-5.00203e-23
-7.18782e-23
-8.89486e-23
-9.58307e-23
-8.97543e-23
-7.19951e-23
-4.74947e-23
-2.28058e-23
-3.53331e-24
7.49344e-24
1.0674e-23
8.65149e-24
4.65286e-24
1.1366e-24
-8.28989e-25
-1.31801e-24
-9.56269e-25
-3.917e-25
3.07723e-27
1.49005e-25
1.30183e-25
5.95789e-26
5.39855e-27
-1.64116e-26
-1.94549e-26
-1.87559e-26
-5.88436e-52
-9.17609e-53
2.46909e-51
7.50947e-51
2.02165e-50
4.36664e-50
-4.56712e-50
-6.41007e-49
-1.45464e-48
9.35249e-49
8.32948e-48
-4.45662e-48
-8.55034e-47
-1.08831e-46
5.1852e-46
2.20475e-45
2.77782e-45
-3.66264e-45
-2.21685e-44
-4.81922e-44
-6.47868e-44
-8.05368e-44
1.2203e-43
2.2038e-42
2.71258e-42
-3.12764e-41
-5.99951e-41
3.30576e-40
5.31185e-40
-3.86468e-39
-3.70165e-39
4.37249e-38
2.20889e-38
-4.51795e-37
-1.00346e-37
4.44137e-36
1.06607e-36
-4.00256e-35
-2.036e-35
3.22717e-34
3.11487e-34
-2.28559e-33
-3.75434e-33
1.34502e-32
3.65881e-32
-5.67875e-32
-2.93275e-31
3.54246e-32
1.81741e-30
2.07996e-30
-7.56739e-30
-2.23073e-29
6.99112e-30
1.27268e-28
1.75853e-28
-3.20678e-28
-1.41987e-27
-1.1811e-27
4.09596e-27
1.34265e-26
1.0553e-26
-3.27012e-26
-1.14346e-25
-1.32454e-25
1.20948e-25
7.66764e-25
1.43508e-24
9.59739e-25
-2.24005e-24
-8.68886e-24
-1.57547e-23
-1.64719e-23
-1.13173e-24
3.78379e-23
9.96911e-23
1.71805e-22
2.32219e-22
2.58521e-22
2.38869e-22
1.78445e-22
9.71983e-23
2.05939e-23
-3.12459e-23
-5.09443e-23
-4.44747e-23
-2.52259e-23
-6.11816e-24
5.4888e-24
8.61083e-24
6.31883e-24
2.52038e-24
-2.28537e-25
-1.2392e-24
-1.03977e-24
-4.51542e-25
-5.70607e-27
1.72443e-25
1.92565e-25
1.79499e-25
1.7613e-25
1.7513e-51
1.25987e-50
3.65018e-51
-7.46764e-50
-1.23101e-49
3.57644e-49
1.57715e-48
7.7281e-49
-9.09855e-48
-2.88465e-47
-2.4557e-47
9.14767e-47
3.57434e-46
3.31881e-46
-1.36443e-45
-5.18844e-45
-3.73373e-45
2.17654e-44
7.25336e-44
5.26744e-44
-2.53005e-43
-8.10327e-43
-1.0949e-42
-1.61331e-42
6.3235e-42
6.43048e-41
3.24531e-41
-7.40424e-40
-5.68783e-40
7.4478e-39
3.44005e-39
-7.42438e-38
-3.43881e-39
7.53208e-37
3.7459e-38
-6.89599e-36
-2.15939e-36
5.55587e-35
3.62999e-35
-4.21054e-34
-5.28108e-34
2.79391e-33
6.37487e-33
-1.3112e-32
-5.78248e-32
1.58258e-32
3.88411e-31
4.39168e-31
-1.70854e-30
-5.26283e-30
1.27804e-30
3.2096e-29
5.0682e-29
-8.0082e-29
-4.28913e-28
-4.55355e-28
1.23781e-27
4.98895e-27
5.17454e-27
-1.18905e-26
-5.25823e-26
-7.45537e-26
4.6902e-26
4.44833e-25
9.74459e-25
7.92552e-25
-1.73195e-24
-7.97639e-24
-1.63238e-23
-1.83299e-23
3.82039e-24
7.51306e-23
2.18729e-22
4.4177e-22
7.22785e-22
1.00881e-21
1.22756e-21
1.31273e-21
1.23193e-21
1.00222e-21
6.83989e-22
3.57294e-22
9.32245e-23
-6.87828e-23
-1.28806e-22
-1.16341e-22
-7.09033e-23
-2.50191e-23
4.38896e-24
1.50535e-23
1.31925e-23
6.80293e-24
1.32221e-24
-1.34109e-24
-1.67857e-24
-9.85437e-25
-2.77364e-25
6.38417e-26
1.28862e-25
1.20969e-25
7.43913e-51
3.27841e-50
-2.95578e-51
-2.38178e-49
-4.69804e-49
5.92891e-49
4.47389e-48
7.01364e-48
-1.15326e-47
-7.85131e-47
-1.37028e-46
1.56751e-46
1.23515e-45
1.61849e-45
-4.82589e-45
-2.14947e-44
-2.10261e-44
6.86955e-44
2.76037e-43
3.34582e-43
-3.81756e-43
-1.07962e-42
-2.93538e-43
-1.81525e-41
-3.21272e-41
3.68245e-40
6.93366e-40
-4.65745e-39
-6.9667e-39
5.68067e-38
5.42742e-38
-6.39747e-37
-3.17145e-37
6.77985e-36
1.92797e-36
-6.60503e-35
-2.11388e-35
5.83461e-34
3.06864e-34
-4.73638e-33
-4.44906e-33
3.41999e-32
5.46054e-32
-2.04939e-31
-5.42049e-31
8.83226e-31
4.37501e-30
-8.35306e-31
-2.75018e-29
-2.92031e-29
1.18437e-28
3.28479e-28
-1.49935e-28
-1.95445e-27
-2.44884e-27
5.45168e-27
2.15326e-26
1.46842e-26
-6.92789e-26
-2.03352e-25
-1.23653e-25
5.82365e-25
1.77692e-24
1.72278e-24
-2.76858e-24
-1.28917e-23
-2.13238e-23
-8.26184e-24
5.00675e-23
1.5453e-22
2.47289e-22
1.94923e-22
-1.78063e-22
-9.98426e-22
-2.23399e-21
-3.63559e-21
-4.79075e-21
-5.28655e-21
-4.90436e-21
-3.73685e-21
-2.15559e-21
-6.43681e-22
4.14044e-22
8.70069e-22
8.21048e-22
5.04375e-22
1.60207e-22
-6.52057e-23
-1.40826e-22
-1.13663e-22
-5.16224e-23
-2.31491e-24
1.85541e-23
1.77034e-23
8.64148e-24
9.53756e-25
-2.49668e-24
-3.11538e-24
-2.96467e-24
-2.90441e-24
-4.0451e-51
1.46148e-50
2.4339e-50
-7.51846e-50
-6.73073e-49
-1.92617e-48
-3.23988e-51
1.74469e-47
5.0459e-47
1.53997e-47
-2.39928e-46
-4.93164e-46
3.62915e-46
2.52927e-45
2.45034e-46
-1.45641e-44
-1.94973e-44
6.17207e-44
2.99314e-43
9.24991e-43
1.84103e-42
-4.81069e-42
-2.76261e-41
2.55538e-41
1.76336e-40
-7.1411e-40
-1.30453e-39
1.27258e-38
1.21347e-38
-1.59252e-37
-6.82761e-38
1.81412e-36
3.04541e-37
-1.86601e-35
-2.75971e-36
1.73369e-34
5.2465e-35
-1.47719e-33
-9.59053e-34
1.13642e-32
1.36941e-32
-7.58334e-32
-1.56338e-31
3.958e-31
1.43827e-30
-1.07056e-30
-1.03478e-29
-6.21209e-30
5.36383e-29
1.12104e-28
-1.34474e-28
-8.29889e-28
-6.68728e-28
3.15165e-27
9.18868e-27
2.02492e-27
-4.0297e-26
-9.31197e-26
-1.52757e-26
3.83109e-25
9.47894e-25
6.14939e-25
-2.4424e-24
-8.63755e-24