/*--------------------------------*- C++ -*----------------------------------*\
  =========                 |
  \\      /  F ield         | OpenFOAM: The Open Source CFD Toolbox
   \\    /   O peration     | Website:  https://openfoam.org
    \\  /    A nd           | Version:  13
     \\/     M anipulation  |
\*---------------------------------------------------------------------------*/
FoamFile
{
    format      ascii;
    class       volScalarField;
    location    "1.9";
    object      T;
}
// * * * * * * * * * * * * * * * * * * * * * * * * * * * * * * * * * * * * * //

dimensions      [0 0 0 1 0 0 0];

internalField   nonuniform List<scalar> 
10000
(
0
0
0
0
0
0
0
0
0
0
0
0
0
0
0
0
0
0
0
0
0
0
0
0
0
0
0
0
0
0
0
0
0
0
0
0
0
0
0
0
0
0
0
0
0
0
0
0
0
0
0
0
0
0
0
0
0
0
0
0
0
0
0
0
0
0
0
0
0
0
0
0
0
0
0
0
0
0
0
0
0
0
0
0
0
0
0
0
0
0
0
0
0
0
0
0
0
0
0
0
0
0
0
0
0
0
0
0
0
0
0
0
0
0
0
0
0
0
0
0
0
0
0
0
0
0
0
0
0
0
0
0
0
0
0
0
0
0
0
0
0
0
0
0
0
0
0
0
0
0
0
0
0
0
0
0
0
0
0
0
0
0
0
0
0
0
0
0
0
0
0
0
0
0
0
0
0
0
0
0
0
0
0
0
0
0
0
0
0
0
0
0
0
0
0
0
0
0
0
0
0
0
0
0
0
0
0
0
0
0
0
0
0
0
0
0
0
0
0
0
0
0
0
0
0
0
0
0
0
0
0
0
0
0
0
0
0
0
0
0
0
0
0
0
0
0
0
0
0
0
0
0
0
0
0
0
0
0
0
0
0
0
0
0
0
0
0
0
0
0
0
0
0
0
0
0
0
0
0
0
0
0
0
0
0
0
0
0
0
0
0
0
0
0
0
0
0
0
0
0
0
0
0
0
0
0
0
0
0
0
0
0
0
0
0
0
0
0
0
0
0
0
0
0
0
0
0
0
0
0
0
0
0
0
0
0
0
0
0
0
0
0
0
0
0
0
0
0
0
0
0
0
0
0
0
0
0
0
0
0
0
0
0
0
0
0
0
0
0
0
0
0
0
0
0
0
0
0
0
0
0
0
0
0
0
0
0
0
0
0
0
0
0
0
0
0
0
0
0
0
0
0
0
0
0
0
0
0
0
0
0
0
0
0
0
0
0
0
0
0
0
0
0
0
0
0
0
0
0
0
0
0
0
0
0
0
0
0
0
0
0
0
0
0
0
0
0
0
0
0
0
0
0
0
0
0
0
0
0
0
0
0
0
0
0
0
0
0
0
0
0
0
0
0
0
0
0
0
0
0
0
0
0
0
0
0
0
0
0
0
0
0
0
0
0
0
0
0
0
0
0
0
0
0
0
0
0
0
0
0
0
0
0
0
0
0
0
0
0
0
0
0
0
0
0
0
0
0
0
0
0
0
0
0
0
0
0
0
0
0
0
0
0
0
0
0
0
0
0
0
0
0
0
0
0
0
0
0
0
0
0
0
0
0
0
0
0
0
0
0
0
0
0
0
0
0
0
0
0
0
0
0
0
0
0
0
0
0
0
0
0
0
0
0
0
0
0
0
0
0
0
0
0
0
0
0
0
0
0
0
0
0
0
0
0
0
0
0
0
0
0
0
0
0
0
0
0
0
0
0
0
0
0
0
0
0
0
0
0
0
0
0
0
0
0
0
0
0
0
0
0
0
0
0
0
0
0
0
0
0
0
0
0
0
0
0
0
0
0
0
0
0
0
0
0
0
0
0
0
0
0
0
0
0
0
0
0
0
0
0
0
0
0
0
0
0
0
0
0
0
0
0
0
0
0
0
0
0
0
0
0
0
0
0
0
0
0
0
0
0
0
0
0
0
0
0
0
0
0
0
0
0
0
0
0
0
0
0
0
0
0
0
0
0
0
0
0
0
0
0
0
0
0
0
0
0
0
0
0
0
0
0
0
0
0
0
0
0
0
0
0
0
0
0
0
0
0
0
0
0
0
0
0
0
0
0
0
0
0
0
0
0
0
0
0
0
0
0
0
0
0
0
0
0
0
0
0
0
0
0
0
0
0
0
0
0
0
0
0
0
0
0
0
0
0
0
0
0
0
0
0
0
0
0
0
0
0
0
0
0
0
0
0
0
0
0
0
0
0
0
0
0
0
0
0
0
0
0
0
0
0
0
0
0
0
0
0
0
0
0
0
0
0
0
0
0
0
0
0
0
0
0
0
0
0
0
0
0
0
0
0
0
0
0
0
0
0
0
0
0
0
0
0
0
0
0
0
0
0
0
0
0
0
0
0
0
0
0
0
0
0
0
0
0
0
0
0
0
0
0
0
0
0
0
0
0
0
0
0
0
0
0
0
0
0
0
0
0
0
0
0
0
0
0
0
0
0
0
0
0
0
0
0
0
0
0
0
0
0
0
0
0
0
0
0
0
0
0
0
0
0
0
0
0
0
0
0
0
0
0
0
0
0
0
0
0
0
0
0
0
0
0
0
0
0
0
0
0
0
0
0
0
0
0
0
0
0
0
0
0
0
0
0
0
0
0
0
0
0
0
0
0
0
0
0
0
0
0
0
0
0
0
0
0
0
0
0
0
0
0
0
0
0
0
0
0
0
0
0
0
0
0
0
0
0
0
0
0
0
0
0
0
0
0
0
0
0
0
0
0
0
0
0
0
0
0
0
0
0
0
0
0
0
0
0
0
0
0
0
0
0
0
0
0
0
0
0
0
0
0
0
0
0
0
0
0
0
0
0
0
0
0
0
0
0
0
0
0
0
0
0
0
0
0
0
0
0
0
0
0
0
0
0
0
0
0
0
0
0
0
0
0
0
0
0
0
0
0
0
0
0
0
0
0
0
0
0
0
0
0
0
0
0
0
0
0
0
0
0
0
0
0
0
0
0
0
0
0
0
0
0
0
0
0
0
0
0
0
0
0
0
0
0
0
0
0
0
0
0
0
0
0
0
0
0
0
0
0
0
0
0
0
0
0
0
0
0
0
0
0
0
0
0
0
0
0
0
0
0
0
0
0
0
0
0
0
0
0
0
0
0
0
0
0
0
0
0
0
0
0
0
0
0
0
0
0
0
0
0
0
0
0
0
0
0
0
0
0
0
0
0
0
0
0
0
0
0
0
0
0
0
0
0
0
0
0
0
0
0
0
0
0
0
0
0
0
0
0
0
0
0
0
0
0
0
0
0
0
0
0
0
0
0
0
0
0
0
0
0
0
0
0
0
0
0
0
0
0
0
0
0
0
0
0
0
0
0
0
0
0
0
0
0
0
0
0
0
0
0
0
0
0
0
0
0
0
0
0
0
0
0
0
0
0
0
0
0
0
0
0
0
0
0
0
0
0
0
0
0
0
0
0
0
0
0
0
0
0
0
0
0
0
0
0
0
0
0
0
0
0
0
0
0
0
0
0
0
0
0
0
0
0
0
0
0
0
0
0
0
0
0
0
0
0
0
0
0
0
0
0
0
0
0
0
0
0
0
0
0
0
0
0
0
0
0
0
0
0
0
0
0
0
0
0
0
0
0
0
0
0
0
0
0
0
0
0
0
0
0
0
0
0
0
0
0
0
0
0
0
0
0
0
0
0
0
0
0
0
0
0
0
0
0
0
0
0
0
0
0
0
0
0
0
0
0
0
0
0
0
0
0
0
0
0
0
0
0
0
0
0
0
0
0
0
0
0
0
0
0
0
0
0
0
0
0
0
0
0
0
0
0
0
0
0
0
0
0
0
0
0
0
0
0
0
0
0
0
0
0
0
0
0
0
0
0
0
0
0
0
0
0
0
0
0
0
0
0
0
0
0
0
0
0
0
0
0
0
0
0
0
0
0
0
0
0
0
0
0
0
0
0
0
0
0
0
0
0
0
0
0
0
0
0
0
0
0
0
0
0
0
0
0
0
0
0
0
0
0
0
0
0
0
0
0
0
0
0
0
0
0
0
0
0
0
0
0
0
0
0
0
0
0
0
0
0
0
0
0
0
0
0
0
0
0
0
0
0
0
0
0
0
0
0
0
0
0
0
0
0
0
0
0
0
0
0
0
0
0
0
0
0
0
0
0
0
0
0
0
0
0
0
0
0
0
0
0
0
0
0
0
0
0
0
0
0
0
0
0
0
0
0
0
0
0
0
0
0
0
0
0
0
0
0
0
0
0
0
0
0
0
0
0
0
0
0
0
0
0
0
0
0
0
0
0
0
0
0
0
0
0
0
0
0
0
0
0
0
0
0
0
0
0
0
0
0
0
0
0
0
0
0
0
0
0
0
0
0
0
0
0
0
0
0
0
0
0
0
0
0
0
0
0
0
0
0
0
0
0
0
0
0
0
0
0
0
0
0
0
0
0
0
0
0
0
0
0
0
0
0
0
0
0
0
0
0
0
0
0
0
0
0
0
0
0
0
0
0
0
0
0
0
0
0
0
0
0
0
0
0
0
0
0
0
0
0
0
0
0
0
0
0
0
0
0
0
0
0
0
0
0
0
0
0
0
0
0
0
0
0
0
0
0
0
0
0
0
0
0
0
0
0
0
0
0
0
0
0
0
0
0
0
0
0
0
0
0
0
0
0
0
0
0
0
0
0
0
0
0
0
0
0
0
0
0
0
0
0
0
0
0
0
0
0
0
0
0
0
0
0
0
0
0
0
0
0
0
0
0
0
0
0
0
0
0
0
0
0
0
0
0
0
0
0
0
0
0
0
0
0
0
0
0
0
0
0
0
0
0
0
0
0
0
0
0
0
0
0
0
0
0
0
0
0
0
0
0
0
0
0
0
0
0
0
0
0
0
0
0
0
0
0
0
0
0
0
0
0
0
0
0
0
0
0
0
0
0
0
0
0
0
0
0
0
0
0
0
0
0
0
0
0
0
0
0
0
0
0
0
0
0
0
0
0
0
0
0
0
0
0
0
0
0
0
0
0
0
0
0
0
0
0
0
0
0
0
0
0
0
0
0
0
0
0
0
0
0
0
0
0
0
0
0
0
0
0
0
0
0
0
0
0
0
0
0
0
0
0
0
0
0
0
0
0
0
0
0
0
0
0
0
0
0
0
0
0
0
0
0
0
0
0
0
0
0
0
0
0
0
0
0
0
0
0
0
0
0
0
0
0
0
0
0
0
0
0
0
0
0
0
0
0
0
0
0
0
0
0
0
0
0
0
0
0
0
0
0
0
0
0
0
0
0
0
0
0
0
0
0
0
0
0
0
0
0
0
0
0
0
0
0
0
0
0
0
0
0
0
0
0
0
0
0
0
0
0
0
0
0
0
0
0
0
0
0
0
0
0
0
0
0
0
0
0
0
0
0
0
0
0
0
0
0
0
0
0
0
0
0
0
0
0
0
0
0
0
0
0
0
0
0
0
0
0
0
0
0
0
0
0
0
0
0
0
0
0
0
0
0
0
0
0
0
0
0
0
0
0
0
0
0
0
0
0
0
0
0
0
0
0
0
0
0
0
0
0
0
0
0
0
0
0
0
0
0
0
0
0
0
0
0
0
0
0
0
0
0
0
0
0
0
0
0
0
0
0
0
0
0
0
0
0
0
0
0
0
0
0
0
0
0
0
0
0
0
0
0
0
0
0
0
0
0
0
0
0
0
0
0
0
0
0
0
0
0
0
0
0
0
0
0
0
0
0
0
0
0
0
0
0
0
0
0
0
0
0
0
0
0
0
0
0
0
0
0
0
0
0
0
0
0
0
0
0
0
0
0
4.49106e-321
-3.96883e-320
2.74345e-319
-4.90256e-319
-1.84183e-319
5.34742e-319
-1.42462e-318
1.81717e-317
-1.13303e-316
4.61643e-316
-1.10846e-315
4.39969e-315
1.3378e-315
-1.83817e-315
-2.20207e-315
2.18641e-314
-2.5193e-313
9.89268e-314
1.83396e-313
1.78972e-313
7.03212e-314
-1.38348e-313
-3.21604e-313
1.84932e-314
4.46707e-313
-1.15242e-313
-1.6705e-313
-6.85386e-314
1.76351e-314
-4.20522e-315
-1.64925e-313
3.20457e-313
7.37401e-314
-1.02591e-313
8.80432e-314
-1.79925e-313
-7.55695e-314
2.90488e-314
-3.04265e-314
1.86184e-314
2.8468e-314
1.18134e-314
2.91058e-314
9.87669e-315
-2.0349e-314
-1.54991e-314
1.06965e-314
-1.62417e-315
8.31424e-316
1.82819e-316
7.60829e-316
-5.82585e-316
-8.12003e-316
8.18302e-317
1.64092e-316
6.4127e-317
2.42558e-317
-1.7069e-318
-1.31452e-317
-8.39604e-318
-2.48602e-318
5.83452e-319
6.33852e-319
-1.42879e-319
0
0
0
0
0
0
0
0
0
0
0
0
0
0
0
-4.57999e-321
5.3952e-321
-1.87745e-320
6.7687e-320
-1.11047e-318
5.13285e-318
1.68886e-317
-4.89554e-316
3.47213e-315
-4.22022e-314
4.05771e-313
-2.56389e-312
1.72621e-311
-1.37892e-310
8.91787e-310
-5.14804e-309
1.72266e-308
-1.12543e-307
3.41145e-307
7.74766e-308
-8.42884e-306
3.5243e-305
-2.57253e-304
1.33721e-304
-2.21491e-304
-1.53008e-304
2.14543e-304
-4.03848e-304
5.1302e-303
-3.54661e-302
1.61781e-301
-5.05277e-301
9.20668e-301
9.61938e-300
-1.37217e-298
3.73894e-298
-5.50601e-299
-1.86371e-298
-1.00178e-298
1.2072e-300
5.65616e-299
8.50621e-299
3.17706e-299
-1.39231e-298
-1.87676e-299
2.56376e-298
-7.16319e-299
-2.53141e-298
3.39594e-298
4.59258e-298
-5.01088e-298
-3.93618e-298
-2.05609e-298
1.89691e-298
2.49365e-298
2.2134e-298
-1.44254e-299
-1.76176e-298
-8.2455e-299
1.8776e-299
5.77581e-299
1.17535e-299
-1.45552e-300
-1.56125e-299
-1.77192e-299
-1.10937e-299
8.11972e-300
8.56936e-300
3.10724e-300
-2.49275e-301
-2.11597e-301
-1.47462e-300
2.65557e-305
3.63779e-301
2.16416e-301
-7.74723e-302
-1.10175e-301
-1.06456e-302
1.93328e-302
1.28735e-302
4.27071e-303
-8.7425e-304
-5.92335e-304
1.22152e-303
-1.31173e-303
6.30171e-319
-6.00841e-318
4.46132e-317
-2.65628e-316
3.33437e-315
-1.71352e-314
2.03234e-313
-2.56306e-312
8.34942e-312
-3.54398e-310
2.75393e-309
-3.11327e-308
1.79669e-307
-9.89027e-307
1.81392e-307
3.24722e-306
-1.4528e-306
2.27189e-305
-1.87393e-304
1.23649e-303
-5.55627e-303
5.57422e-302
-3.91785e-301
2.3306e-300
-8.4074e-300
-4.09667e-299
3.7637e-298
-3.19876e-297
2.33617e-296
-1.94316e-295
1.15675e-294
-8.53889e-294
4.60562e-293
-2.0266e-292
4.33524e-292
4.44622e-291
-3.74476e-290
1.93147e-289
-6.31692e-289
7.52336e-290
1.36951e-289
3.07329e-289
7.68004e-291
-1.55331e-288
4.59845e-288
-2.0797e-287
4.17379e-287
5.01854e-286
-9.44208e-285
7.67557e-284
-1.69661e-283
-2.44291e-284
5.53268e-284
6.49628e-284
3.31313e-284
1.88923e-285
-6.83836e-285
-1.38696e-283
7.44945e-284
7.94573e-284
-5.25659e-284
3.45902e-283
4.53719e-283
-4.51065e-283
-3.99838e-283
-1.03458e-283
6.05565e-284
1.09353e-283
7.12759e-284
-6.13898e-285
-3.70548e-284
-3.34268e-284
1.14599e-284
9.43825e-285
1.17831e-285
-9.26058e-285
-2.35182e-285
-9.30201e-285
-5.35404e-285
2.40677e-285
4.94065e-285
2.58723e-285
2.09641e-286
-3.47244e-286
-2.44418e-286
-5.50548e-286
4.86687e-286
8.14796e-287
-2.60201e-287
-9.62907e-287
-2.27384e-287
1.37916e-287
1.33989e-287
4.78325e-288
1.23818e-289
-7.59891e-289
-3.01921e-289
4.97649e-289
-1.72779e-288
3.56235e-289
-1.89256e-304
4.25968e-303
-3.50197e-302
4.47714e-301
-2.9667e-300
3.6194e-299
-4.5561e-298
2.62329e-297
-3.00356e-296
1.82873e-295
-2.03402e-294
9.97719e-294
-1.04515e-292
1.15305e-291
-8.9118e-292
3.31157e-291
-1.10276e-291
-8.96548e-291
7.91031e-290
-7.9676e-289
7.76878e-288
-1.99317e-287
1.61869e-286
-1.48098e-285
1.28238e-284
-1.06111e-283
-3.77863e-285
4.7391e-283
-4.9536e-282
5.48779e-281
-5.72769e-280
1.97772e-279
-1.34191e-278
1.0046e-277
-7.22398e-277
4.9915e-276
8.67994e-276
-6.87139e-275
3.95186e-274
-2.86543e-275
-1.33264e-274
-1.40989e-274
-4.71192e-274
5.75216e-273
-5.34528e-273
3.44936e-273
1.42565e-272
-3.67501e-271
3.05888e-270
-1.47072e-269
3.07354e-269
4.96208e-270
1.49624e-268
-2.2079e-268
-1.51898e-268
1.65073e-269
1.07285e-268
1.09799e-268
-5.11878e-269
2.94279e-268
1.30306e-268
-1.32893e-268
-3.74068e-268
7.11307e-268
-7.6302e-269
1.28422e-269
-7.07952e-268
1.74038e-269
6.50292e-269
3.31475e-268
-2.3283e-268
-1.36115e-269
2.28137e-270
-4.28657e-270
-4.14627e-270
2.90277e-270
-7.61243e-270
-1.12172e-270
2.06896e-270
1.60689e-270
6.98787e-271
-1.09107e-271
-2.15179e-271
-9.21517e-272
-5.49361e-272
4.54481e-271
-1.89249e-271
-1.72323e-271
-5.73864e-272
1.56721e-273
1.50702e-272
-2.38959e-272
1.16835e-272
1.11411e-272
3.93629e-273
2.97374e-274
1.76448e-274
-1.87353e-273
2.74252e-275
4.35063e-274
2.80831e-289
-2.68989e-288
2.90058e-287
-3.22428e-286
3.47421e-285
-3.55037e-284
3.377e-283
-2.87569e-282
1.97418e-281
-2.2284e-280
1.50404e-279
-1.62891e-278
1.79376e-277
-1.29678e-276
7.02335e-276
-4.12508e-276
1.05358e-275
-1.24079e-274
8.37887e-275
7.342e-274
-6.04623e-273
5.46508e-272
-4.85463e-271
3.28966e-270
-1.95903e-269
9.42798e-269
-6.945e-268
1.51663e-267
-7.42945e-267
2.95109e-266
4.09167e-265
-4.11654e-264
4.59261e-263
-2.72952e-262
1.09357e-261
-4.67145e-261
2.92309e-260
-8.75812e-260
2.31476e-259
3.70572e-260
-2.87488e-259
1.48228e-258
-4.66617e-258
-4.54413e-258
-9.1677e-259
2.19278e-258
-3.75929e-258
6.11688e-257
-3.47789e-256
1.38976e-255
-1.58747e-255
-2.97162e-254
1.90446e-253
-1.92281e-253
-1.41856e-253
1.76147e-254
9.43721e-254
9.6543e-254
4.16876e-253
3.55083e-254
-2.4768e-253
-2.27519e-253
-5.21332e-253
2.05121e-253
8.64446e-253
3.18622e-253
-4.38211e-253
-4.95182e-253
-2.74891e-253
3.51374e-254
2.00568e-253
1.41013e-253
2.49171e-254
-3.68098e-254
-2.92267e-254
-1.17503e-254
1.3216e-256
3.15887e-255
2.16961e-255
5.54139e-256
-7.77176e-257
-1.12355e-256
3.56433e-256
2.86332e-256
-2.39239e-256
-3.78363e-256
5.1112e-256
-7.72735e-256
3.35489e-257
1.16002e-256
-1.5763e-257
2.02094e-257
3.03937e-257
1.04353e-257
-8.67032e-258
-9.26839e-258
-3.36207e-258
1.44226e-258
2.03789e-258
6.82178e-260
1.50836e-275
7.63132e-274
-5.6951e-273
6.96061e-272
-8.75561e-271
1.07999e-269
-1.30816e-268
1.55537e-267
-1.81452e-266
1.18262e-265
-1.27702e-264
1.4064e-263
-7.13652e-263
7.0977e-262
-7.3417e-261
7.39669e-260
-3.41269e-259
1.22892e-259
1.1691e-259
-1.04003e-259
1.31677e-258
-1.15858e-257
9.97086e-257
-8.31826e-256
6.71379e-255
-5.23006e-254
3.9209e-253
-2.81855e-252
7.91287e-252
-4.38501e-251
2.3576e-250
-1.03902e-249
-6.27516e-249
4.27371e-248
-2.71941e-247
1.66225e-246
-9.45191e-246
2.61727e-245
-1.27254e-244
1.68991e-244
-5.75055e-244
-4.44647e-244
-2.3828e-244
1.90745e-242
-6.29593e-242
1.63811e-241
-5.66739e-241
1.23054e-240
4.43405e-241
-5.20842e-241
-1.80637e-240
1.36064e-239
-8.64007e-239
2.20535e-239
5.71075e-239
2.71098e-240
1.60903e-238
1.43486e-239
-3.76335e-239
-6.45437e-238
-7.01103e-239
3.21859e-238
3.65568e-238
2.40156e-238
-1.37694e-238
-1.82883e-238
-1.50831e-238
8.17437e-240
5.21898e-239
5.91294e-239
1.85668e-239
-8.47793e-240
-7.0965e-240
-6.62522e-240
-2.63293e-240
-2.6259e-241
3.82806e-241
3.01874e-241
1.24982e-241
2.43606e-242
9.97822e-243
-5.66168e-242
-3.89718e-241
5.50611e-241
5.60787e-241
2.10995e-241
-5.3214e-241
-4.87093e-241
-4.79421e-242
8.72449e-242
6.29287e-242
1.72619e-242
4.00076e-243
-8.80958e-243
-4.12968e-243
-3.09449e-244
5.77173e-244
3.58721e-244
-4.86162e-244
3.18482e-244
1.03146e-259
-5.37691e-259
5.01536e-258
-2.10964e-257
-2.6965e-256
8.17163e-255
-1.00196e-253
1.07527e-252
-1.00601e-251
1.11646e-250
-9.45013e-250
9.00786e-249
-8.40745e-248
6.46951e-247
-5.33323e-246
4.35573e-245
-3.34364e-244
1.95524e-243
-7.06928e-243
3.61827e-242
-2.36419e-241
1.41138e-240
-6.73981e-240
-2.11444e-239
1.03224e-239
6.84715e-239
7.95066e-239
-1.28619e-237
1.14963e-236
-6.00277e-236
2.71461e-235
-1.03482e-234
4.09434e-234
1.26942e-233
-1.2287e-232
6.45311e-232
-2.57987e-231
1.09343e-230
-3.97893e-230
8.25389e-230
-1.2824e-229
-3.09733e-229
5.0384e-229
4.07781e-228
-1.27345e-227
2.52732e-227
-7.74365e-227
3.74306e-226
-4.23034e-225
-1.74663e-224
4.23611e-224
8.8996e-225
-3.23275e-224
-1.45114e-224
-9.96051e-225
-3.53193e-224
3.50837e-224
1.16256e-223
7.22659e-224
-7.50219e-224
-1.56947e-223
-5.66256e-224
1.82728e-224
8.10799e-224
6.69996e-224
2.43063e-224
-2.65949e-224
-3.18409e-224
-1.71644e-224
-1.65903e-225
5.12936e-225
4.32237e-225
2.48772e-225
3.41071e-225
1.17712e-225
-1.11923e-225
-2.52761e-225
-9.0282e-226
2.79468e-225
8.41566e-226
5.94556e-226
-1.9074e-225
-8.94674e-226
-1.84686e-226
2.57429e-226
4.08338e-226
1.13894e-226
-6.78903e-227
-7.08701e-227
-3.85125e-227
-1.07124e-227
8.4603e-228
7.89509e-228
4.57593e-228
-9.20247e-229
-2.3571e-228
-9.82775e-229
1.62155e-229
5.85341e-229
1.42103e-229
-8.29117e-245
3.79461e-244
-4.61226e-243
5.69704e-242
-5.20487e-241
1.22676e-241
2.07907e-239
-2.46523e-238
2.75887e-237
-3.18266e-236
2.27925e-235
-2.34015e-234
2.41599e-233
-2.43478e-232
1.91204e-231
-1.81517e-230
1.28967e-229
-1.1605e-228
5.07847e-228
-1.59193e-227
1.25313e-226
-1.0343e-225
8.20797e-225
4.011e-224
-1.40371e-224
-3.65018e-224
1.06134e-223
-6.20368e-223
-2.14478e-222
1.2848e-221
-6.62415e-221
3.15059e-220
-5.09117e-219
1.86574e-219
2.13645e-218
-1.741e-217
3.61627e-217
3.82743e-217
4.01654e-216
4.24043e-216
-2.13764e-215
5.15111e-214
-9.60641e-214
1.98026e-213
1.01051e-213
1.71034e-213
1.20392e-211
-1.10403e-210
2.12857e-210
4.94748e-210
-4.03643e-210
-1.21733e-210
-1.29702e-210
-8.23255e-211
2.52199e-210
4.60112e-209
2.92785e-209
-3.83201e-209
-7.17152e-209
-3.8305e-209
8.72035e-210
4.39226e-209
3.92707e-209
1.10929e-209
-5.20547e-210
-1.84549e-209
-8.56416e-210
-4.80751e-210
1.13543e-210
2.37752e-210
2.33523e-211
1.77729e-210
1.84005e-210
-5.63462e-211
-8.36735e-211
-9.16837e-211
4.25485e-211
1.89657e-210
-6.2383e-211
-7.4056e-211
-9.38761e-211
9.85433e-212
3.101e-211
2.58953e-211
1.71619e-211
1.9632e-213
-1.69467e-213
-6.50273e-212
-1.63971e-212
1.61699e-213
5.59983e-213
1.81968e-213
1.36987e-213
-1.54544e-213
-1.64436e-213
1.61743e-214
2.98521e-214
3.17126e-214
3.75949e-215
-4.94411e-215
-7.41592e-230
4.90694e-229
-4.03987e-228
3.81016e-227
-4.47755e-226
4.25058e-225
-3.71363e-224
1.6538e-223
-3.39641e-223
-2.59928e-221
4.41527e-220
-3.04559e-219
1.39707e-218
-1.0935e-217
1.33407e-216
-9.34544e-216
5.07944e-215
-3.95891e-214
5.82001e-213
-2.88982e-212
1.91153e-211
-1.27817e-210
1.16191e-209
-7.19779e-209
5.14156e-208
-2.29255e-207
6.10454e-207
-1.10348e-207
2.13258e-205
-3.25838e-206
-4.01372e-205
8.64178e-205
-4.40439e-204
-1.4524e-204
-8.10372e-204
1.89281e-202
-5.26081e-202
2.9054e-201
-1.57486e-200
3.40741e-200
-2.46083e-200
2.83494e-199
-4.541e-199
1.39867e-198
-2.25721e-198
2.66208e-197
-1.22474e-196
2.9009e-196
5.49346e-196
-5.99834e-195
7.35514e-195
9.79183e-195
-4.19599e-195
-2.16666e-194
-7.39009e-195
9.14253e-195
1.57567e-194
9.85249e-195
-1.10752e-195
-6.5501e-195
-1.29909e-194
-6.02062e-195
-8.37995e-196
5.92069e-195
8.54328e-195
-7.52093e-195
9.3851e-195
-4.56966e-196
9.71239e-196
-3.81155e-196
-2.93413e-195
3.43544e-196
1.78574e-195
6.30016e-196
-9.80316e-196
-2.48789e-195
2.30739e-195
8.74065e-196
-1.31924e-195
2.8655e-196
-4.60856e-196
-1.88164e-196
-2.70378e-196
-1.5716e-196
1.43631e-196
1.84109e-196
-3.21052e-197
-3.98627e-197
-4.24054e-197
4.64078e-198
5.56026e-199
5.11975e-198
3.74002e-198
1.4677e-198
-1.03915e-198
-1.10107e-198
-3.971e-199
-2.14414e-201
7.25342e-200
2.22083e-200
-2.77468e-215
2.22687e-214
-2.18139e-213
2.56138e-212
-2.19139e-211
2.4611e-210
-2.76186e-209
3.03453e-208
-3.26593e-207
3.44123e-206
-3.5479e-205
3.57705e-204
4.7169e-204
-6.47411e-203
-7.47199e-202
7.45189e-201
-9.69675e-201
5.39245e-199
-4.77245e-198
8.10858e-198
-5.26105e-197
-4.19462e-196
3.41891e-195
-7.34728e-196
-2.84755e-193
1.96187e-192
-8.0369e-192
4.78629e-191
-2.76537e-190
6.23179e-191
-1.72349e-190
1.20647e-189
-4.76945e-189
9.99162e-191
-2.75286e-188
2.11537e-187
-1.23478e-186
3.94078e-186
-7.48855e-186
2.52265e-185
-2.51515e-185
2.23672e-184
-3.87908e-184
2.31062e-184
5.98265e-183
-3.54603e-182
4.58272e-182
-8.78776e-182
-8.4085e-181
3.32454e-180
-2.0644e-180
-6.85033e-180
5.56555e-181
3.02888e-180
6.11559e-180
3.87871e-180
-6.41776e-180
-7.97406e-180
-1.45806e-180
1.20001e-179
-3.89955e-180
-5.12156e-180
1.29436e-179
1.30295e-179
-3.74047e-181
-1.24427e-179
-1.16612e-179
-5.06741e-180
2.77062e-180
4.65455e-180
3.09536e-180
7.72148e-181
-7.55616e-181
-9.23946e-181
-6.89262e-181
3.20405e-180
-4.28062e-180
2.32143e-180
6.68801e-181
-7.24333e-181
-3.58478e-181
-6.3681e-181
-2.96442e-181
4.60333e-181
1.30984e-181
-9.11289e-182
4.47835e-182
-9.28248e-183
2.71144e-182
-4.67367e-183
-9.26484e-183
-7.0017e-183
1.21645e-183
9.25336e-184
4.82471e-184
1.01709e-184
-3.71848e-185
-1.66128e-185
-2.05222e-185
-3.32802e-186
1.53341e-200
-1.19278e-199
1.42381e-198
-1.79373e-197
1.73661e-196
-2.55463e-195
2.84101e-194
-3.05433e-193
4.30341e-192
-3.30903e-191
4.50002e-190
-4.49933e-189
2.4029e-188
-3.02139e-187
2.11263e-186
-1.26792e-185
1.0791e-184
-5.696e-184
6.94778e-183
-4.01357e-182
1.87927e-181
-1.36822e-180
5.30375e-180
-6.37846e-179
2.87872e-178
-9.76849e-178
5.81418e-177
-1.34505e-176
1.61199e-175
-4.61758e-175
7.3275e-175
1.38508e-174
-3.85768e-174
6.14349e-174
-2.50407e-174
1.03475e-172
-4.53423e-172
1.78538e-171
-5.0859e-171
4.58108e-171
5.01651e-170
-7.47619e-170
1.29709e-169
-5.01381e-170
-2.97811e-168
7.1232e-168
-4.52063e-168
-3.70639e-167
3.7962e-166
-1.58272e-165
-2.46226e-166
2.86569e-165
2.40957e-165
-9.57448e-168
-6.68109e-165
-5.99865e-165
5.85844e-165
9.37474e-165
7.13785e-165
-4.48821e-165
-1.04244e-164
-7.83126e-165
-2.40499e-166
4.97013e-165
5.24145e-165
2.42296e-165
-4.17419e-166
-1.59488e-165
-1.29683e-165
-3.7416e-166
4.66469e-166
-6.7103e-165
5.2321e-165
5.37709e-165
3.4808e-165
-4.63808e-165
-5.40745e-165
1.25208e-165
6.35658e-166
1.68295e-165
3.06241e-166
-3.66567e-166
-5.91182e-166
-3.30808e-166
-1.94555e-167
1.29723e-166
9.75343e-167
-4.19034e-168
-1.6561e-167
-1.42416e-167
-2.85108e-168
1.99967e-168
1.31442e-168
8.91684e-169
-8.88402e-170
-1.71973e-169
-6.25142e-170
1.65082e-170
-2.09568e-171
-1.27666e-172
8.60895e-187
-4.87944e-186
-3.10436e-184
7.2707e-183
-1.41868e-181
2.01436e-180
-2.19312e-179
2.44621e-178
-2.667e-177
2.76385e-176
-2.50291e-175
2.1654e-174
-1.925e-173
1.57877e-172
-1.31379e-171
1.06195e-170
-7.75176e-170
5.42938e-169
-3.65824e-168
2.58695e-167
-1.76519e-166
1.03301e-165
-6.39907e-165
3.30402e-164
-1.82996e-163
9.5463e-163
-4.572e-162
2.06078e-161
-8.27874e-161
3.04124e-160
-1.01782e-159
2.62084e-159
-4.75274e-159
-6.97481e-159
6.23333e-158
-2.95548e-157
1.07372e-156
-2.9228e-156
3.25452e-156
1.79596e-156
-3.57229e-155
1.17145e-154
-2.48128e-154
-1.94548e-154
2.7805e-153
-1.04343e-152
1.86229e-152
5.25255e-152
-3.80963e-151
5.62535e-151
1.17268e-150
-1.92838e-150
-2.01609e-150
1.61934e-151
2.54779e-150
3.48604e-150
9.84166e-151
-2.64298e-150
-3.78594e-150
-3.03037e-150
-1.02074e-150
3.00704e-150
4.99646e-151
3.10987e-150
3.49487e-150
3.84862e-150
3.64457e-150
-6.92528e-150
-1.8092e-149
-5.81914e-150
9.10829e-150
1.33816e-149
8.8296e-150
-4.44673e-150
-7.61718e-150
-3.70627e-150
8.84202e-151
2.47684e-150
1.3766e-150
-8.50358e-152
-7.96331e-151
-5.25704e-151
-5.04697e-152
1.235e-151
1.07833e-151
3.13888e-152
-1.24877e-152
-1.66153e-152
-6.67922e-153
1.03719e-154
7.96938e-154
2.78819e-153
-2.10525e-154
-6.13744e-154
-2.78319e-154
-3.76315e-155
7.31233e-155
5.13797e-155
4.63208e-156
-1.05648e-155
-2.73821e-170
4.00043e-170
-3.83193e-169
4.31787e-168
-4.70724e-167
1.59671e-166
-1.47978e-165
1.51372e-164
-1.50159e-163
-2.52606e-162
2.62576e-161
-2.24144e-160
2.04575e-159
-1.99272e-158
1.74105e-157
-1.35237e-156
1.00812e-155
-7.21958e-155
4.9451e-154
-3.68519e-153
2.66899e-152
-1.62782e-151
1.08598e-150
-5.97948e-150
3.65508e-149
-2.14257e-148
9.78787e-148
-5.05283e-147
1.90396e-146
-5.9174e-146
2.24521e-145
-3.62536e-145
3.92159e-145
3.78783e-144
-2.86093e-143
7.96225e-143
-3.16457e-142
1.17934e-141
-5.906e-142
-2.13464e-142
9.10148e-141
-2.39837e-140
7.38177e-140
6.26453e-140
-3.43781e-139
1.0622e-138
-2.27423e-138
-1.10299e-137
5.7014e-137
-3.20939e-137
-2.44327e-136
1.86621e-136
3.56789e-136
6.64327e-137
1.17629e-136
-3.17438e-136
-5.00825e-136
-1.74102e-136
-4.44951e-136
8.40692e-138
7.09393e-136
1.89075e-136
2.7603e-135
8.11979e-136
-6.63275e-136
-2.76697e-135
-7.19695e-135
-4.05719e-135
5.1988e-135
7.20067e-135
4.56508e-135
-7.14006e-136
-3.40555e-135
-2.33016e-135
-4.08047e-136
6.89265e-136
5.77437e-136
1.14376e-136
-1.84918e-136
-1.71614e-136
-5.66592e-137
2.7825e-137
3.54202e-137
1.48925e-137
1.74826e-140
-3.81221e-138
-2.38044e-138
-4.47268e-139
3.91472e-139
2.05415e-139
1.392e-138
-7.46895e-139
-4.97831e-139
-9.06822e-140
4.95346e-140
4.04694e-140
9.94357e-141
-2.80398e-141
-3.16702e-141
-6.28706e-142
-1.82765e-155
1.28844e-154
6.22671e-154
-7.93107e-153
-7.7254e-152
8.94222e-151
-9.1178e-150
9.14617e-149
-8.96463e-148
-7.70294e-149
4.81249e-147
-4.11601e-146
3.69071e-145
-3.21309e-144
2.72181e-143
-2.24092e-142
1.79112e-141
-1.38798e-140
1.04127e-139
-7.54992e-139
5.28043e-138
-3.55428e-137
2.29614e-136
-1.41887e-135
8.35079e-135
-4.65492e-134
2.43846e-133
-1.1867e-132
5.26568e-132
-2.05698e-131
6.50776e-131
-7.23339e-131
-2.77931e-130
4.00243e-129
-2.08127e-128
7.33776e-128
-1.75246e-127
5.23779e-127
-1.46553e-127
-1.01014e-126
5.41538e-126
-9.40295e-126
2.0934e-125
2.84559e-125
-4.67859e-125
3.649e-124
-1.08283e-123
2.97411e-123
-1.75661e-122
-7.95909e-123
9.21585e-122
5.54806e-123
-1.37867e-121
-1.30739e-121
6.55884e-122
2.61471e-121
1.18422e-121
5.22103e-121
-2.88167e-121
-6.12542e-121
-2.00706e-120
-4.85761e-121
8.07802e-121
3.81486e-120
3.92624e-120
1.03016e-120
-3.62959e-120
-5.41208e-120
-2.90412e-120
7.12876e-121
2.20461e-120
1.7091e-120
6.36957e-121
-5.60422e-122
-2.07906e-121
-9.29593e-122
2.1911e-122
4.95843e-122
2.48168e-122
-1.35047e-123
-9.72459e-123
-6.20674e-123
-1.09284e-123
1.13837e-123
1.03187e-123
3.28213e-124
-7.0642e-125
-1.2313e-124
-4.33684e-125
-1.33759e-124
1.3652e-123
-1.06707e-122
3.00803e-123
3.06162e-123
3.58391e-123
7.00606e-124
-1.80227e-124
-6.85878e-124
-1.81813e-124
6.81208e-125
-8.57583e-140
4.66267e-139
-3.4732e-138
3.63685e-137
-3.24325e-136
3.04771e-135
-2.81359e-134
2.28804e-133
-1.94977e-132
1.60804e-131
-1.45777e-130
9.72524e-130
-5.32295e-129
4.37529e-128
-1.63401e-127
1.22663e-126
-6.04114e-126
4.40617e-125
-3.20985e-124
1.79143e-123
-8.87577e-123
3.68462e-122
-2.26189e-121
1.35723e-120
-3.40646e-120
-5.44399e-120
9.40549e-119
-4.25044e-118
1.71764e-117
-4.89148e-117
1.05027e-116
5.13419e-117
-2.01796e-115
1.30027e-114
-6.02365e-114
2.56885e-113
-8.9087e-113
1.75574e-112
-8.47025e-113
-1.06694e-111
4.92527e-111
-9.75094e-111
-6.38115e-111
6.16328e-110
-2.16663e-109
3.06913e-109
6.93145e-109
-3.46737e-108
2.38996e-108
9.42778e-108
-2.53879e-107
-1.96584e-107
6.15735e-107
7.41401e-107
-4.30497e-107
-2.53999e-106
-1.77427e-106
2.81042e-106
6.21647e-106
2.44985e-106
-7.34098e-106
-1.41096e-105
-9.87851e-106
4.01106e-106
1.46078e-105
2.03753e-105
8.17991e-106
-4.51002e-106
-9.95141e-106
-1.81978e-106
-6.86724e-106
-3.05861e-105
1.10867e-105
2.42898e-105
1.7345e-105
-5.54604e-106
-1.53943e-105
-9.38007e-106
1.05283e-106
7.35297e-106
5.71543e-106
-2.72731e-106
-6.75679e-106
-1.8641e-106
2.02739e-106
2.71755e-106
1.70561e-106
-3.97811e-107
-8.04478e-107
-4.89471e-107
-9.43813e-109
1.27112e-107
1.04805e-107
5.27131e-108
-2.01984e-108
-2.33704e-108
-1.0888e-108
1.36811e-109
3.04744e-109
1.02593e-109
2.76441e-125
-1.82676e-124
1.27018e-123
-1.29397e-122
5.62684e-122
-5.25865e-121
5.18272e-120
-4.96371e-119
4.6414e-118
-8.01885e-117
7.29319e-116
-3.32976e-115
2.68282e-114
-2.20774e-113
1.05655e-112
-7.90539e-112
2.16432e-111
-1.44866e-110
1.03087e-109
-6.97694e-109
4.54869e-108
-2.84649e-107
1.70479e-106
-9.73591e-106
5.27739e-105
-1.51851e-104
4.33006e-104
3.60465e-104
-1.14525e-103
3.0043e-103
-4.42985e-103
-2.52804e-102
2.79666e-101
-1.69628e-100
-1.58507e-100
-2.84975e-99
9.31899e-99
-1.52695e-98
-3.67703e-99
1.84999e-97
-7.99091e-97
1.1251e-96
2.31602e-96
-1.14615e-95
1.80858e-95
2.1749e-96
-1.62521e-94
6.2496e-94
-6.58664e-94
-4.23775e-93
7.31958e-93
1.3369e-92
-1.4115e-92
-3.00969e-92
-9.0363e-93
4.00899e-92
6.13386e-92
1.23934e-92
-7.22878e-92
-9.96749e-92
-1.24191e-92
1.40714e-91
2.42967e-91
1.89712e-91
1.06991e-91
-2.46856e-91
-4.65905e-91
7.99863e-92
-9.56834e-93
-1.22622e-90
2.56096e-91
1.74984e-90
7.46072e-91
-3.45057e-91
-8.13494e-91
-3.70079e-91
1.24063e-92
1.10983e-91
1.00686e-91
-2.3932e-91
-4.6298e-91
-1.23918e-91
3.69458e-91
2.77505e-91
1.79763e-91
1.05626e-92
-9.70066e-92
-7.46261e-92
-1.54549e-92
7.12289e-93
1.37491e-92
5.54247e-93
-1.21016e-94
-1.2494e-93
-8.63538e-94
-1.27887e-94
1.27114e-94
9.38909e-95
2.23074e-95
-8.0368e-96
-2.49463e-110
1.59247e-109
-2.05731e-108
1.72578e-107
-1.50332e-106
1.46432e-105
-1.01856e-104
9.33716e-104
-8.52393e-103
8.79591e-102
-6.68407e-101
4.79303e-100
-2.6553e-99
1.57403e-98
-8.52483e-98
8.50266e-97
-6.23473e-96
3.47387e-95
-1.22523e-94
7.70606e-94
-4.841e-93
2.22166e-92
-9.68238e-92
2.61107e-91
-1.32878e-90
6.4893e-90
-2.60018e-89
9.363e-89
-2.54361e-88
8.68809e-88
-1.41347e-87
-3.73175e-87
4.25478e-86
-2.12579e-85
9.16376e-85
-2.78631e-84
6.12737e-84
-4.2176e-84
-1.29438e-83
6.83275e-83
-1.02945e-82
1.76941e-82
1.00493e-81
-3.93661e-81
3.50028e-81
6.10141e-81
-1.33281e-80
-7.8534e-80
-2.27046e-80
1.08006e-78
-3.8111e-79
-3.496e-78
1.73715e-78
-1.98776e-78
-5.35774e-78
1.54553e-77
4.6248e-77
9.89173e-78
-1.37381e-76
-2.33022e-76
-7.21133e-77
3.59057e-76
6.2285e-76
5.42897e-76
-5.54246e-76
-1.46575e-75
-1.16223e-75
-2.50336e-76
1.03893e-75
1.46933e-75
7.64115e-76
-2.10185e-76
-6.0202e-77
-1.77959e-76
-1.71088e-76
-7.72086e-78
-2.12718e-76
-7.11608e-76
-3.65781e-76
1.10922e-76
4.11688e-76
3.92565e-76
2.33068e-76
-1.60953e-77
-1.08561e-76
-9.06199e-77
-3.20532e-77
7.12841e-78
1.60388e-77
9.3467e-78
2.06203e-78
-1.77671e-78
-1.41219e-78
-4.87665e-79
7.51035e-80
1.48357e-79
6.56411e-80
8.10389e-81
-1.19183e-80
-5.29921e-81
-1.30323e-95
8.26272e-95
-9.04814e-94
9.24324e-93
-9.50861e-92
8.63883e-91
-7.80413e-90
6.66222e-89
-5.50808e-88
4.41166e-87
-3.56008e-86
2.7938e-85
-2.21883e-84
1.56841e-83
-1.0055e-82
6.44504e-82
-3.93917e-81
2.45948e-80
-1.47417e-79
6.89454e-79
-3.00648e-78
1.29897e-77
-5.9216e-77
2.46749e-76
-3.24195e-76
1.36297e-75
-5.64069e-75
1.84622e-74
-5.76947e-74
1.25374e-73
-5.04236e-74
-1.1218e-72
8.50582e-72
-4.06999e-71
1.43092e-70
-3.61754e-70
5.76705e-70
-1.50467e-70
-4.49345e-69
1.90754e-68
-3.00938e-68
-5.94235e-68
4.5373e-67
-1.2112e-66
4.05144e-67
6.44568e-66
-1.70737e-65
3.21376e-67
1.05236e-64
-1.63809e-64
-2.90112e-64
4.17948e-64
1.44916e-63
-6.02866e-64
-6.13184e-63
-2.38867e-63
1.78699e-62
2.65358e-62
-1.29271e-62
-7.56067e-62
-1.2626e-61
-3.27494e-62
1.30235e-61
2.26713e-61
2.02212e-61
-3.55743e-62
-3.40177e-61
-4.87323e-61
1.1618e-61
1.33944e-61
-2.85779e-61
-2.52901e-61
1.78452e-61
3.27302e-61
8.28683e-61
6.72742e-61
2.70737e-61
-3.81528e-61
-5.81937e-61
-4.62755e-61
-2.18439e-61
-1.1043e-62
8.81461e-62
7.59792e-62
3.34829e-62
8.43418e-64
-9.21168e-63
-7.38098e-63
-2.53332e-63
3.33081e-64
9.19419e-64
4.90238e-64
7.65314e-65
-6.9491e-65
-5.86723e-65
-1.68479e-65
3.31874e-66
5.76497e-66
2.26908e-66
-3.32342e-67
-1.13229e-81
6.7049e-81
-6.82848e-80
6.69011e-79
1.08923e-77
-1.09921e-76
9.9641e-76
-8.86027e-75
7.67325e-74
-6.46819e-73
5.30228e-72
-4.22272e-71
3.2637e-70
-2.44518e-69
1.77354e-68
-1.24362e-67
8.41726e-67
-5.48944e-66
3.44266e-65
-1.6207e-64
9.25379e-64
-5.0972e-63
2.6602e-62
-1.31408e-61
1.2654e-62
-7.90526e-62
4.26893e-61
-1.37198e-60
4.11849e-60
-8.31398e-60
-1.65447e-60
1.27874e-58
-8.15922e-58
3.53803e-57
-1.1784e-56
2.94261e-56
-4.44434e-56
-2.40216e-56
3.82431e-55
-1.05507e-54
8.72429e-56
1.02409e-53
-3.97431e-53
5.28898e-53
1.4132e-52
-7.50277e-52
5.39784e-52
3.87361e-51
-9.13452e-51
-6.98587e-51
5.98703e-50
1.5762e-50
1.05922e-50
-3.73645e-49
6.60617e-49
1.03678e-48
-5.73586e-49
-4.13859e-48
-1.4334e-48
-1.82356e-48
2.77061e-47
1.05231e-47
-1.72852e-47
-1.53735e-46
-1.14686e-46
-2.41109e-47
7.80685e-47
2.6098e-46
-3.55773e-46
6.26537e-47
2.37304e-46
2.90262e-46
1.9114e-46
1.72999e-46
-7.4623e-47
-2.00184e-46
-2.00062e-46
-1.60961e-46
-7.33825e-47
-4.79833e-48
2.78327e-47
1.86042e-47
9.09323e-48
2.08987e-48
-1.0414e-48
-1.40297e-48
-7.35532e-49
-1.3622e-49
1.02394e-49
1.03134e-49
4.14349e-50
-1.87536e-51
-9.5603e-51
-4.40635e-51
-1.57346e-52
8.82466e-52
7.7793e-52
-6.68221e-53
-2.28924e-52
1.62059e-53
2.29493e-65
-1.30552e-64
8.3693e-64