/*--------------------------------*- C++ -*----------------------------------*\
  =========                 |
  \\      /  F ield         | OpenFOAM: The Open Source CFD Toolbox
   \\    /   O peration     | Website:  https://openfoam.org
    \\  /    A nd           | Version:  13
     \\/     M anipulation  |
\*---------------------------------------------------------------------------*/
FoamFile
{
    format      ascii;
    class       volScalarField;
    location    "3.7";
    object      T;
}
// * * * * * * * * * * * * * * * * * * * * * * * * * * * * * * * * * * * * * //

dimensions      [0 0 0 1 0 0 0];

internalField   nonuniform List<scalar> 
10000
(
4.20725e-80
4.00763e-80
-1.12656e-79
1.20386e-78
-8.23811e-78
5.04428e-77
-2.8168e-76
1.45942e-75
-7.0669e-75
3.20737e-74
-1.36431e-73
5.42563e-73
-2.00725e-72
6.85154e-72
-2.12928e-71
5.88863e-71
-1.38582e-70
2.47522e-70
-1.827e-70
-8.71675e-70
4.95721e-69
-1.46708e-68
2.57472e-68
-2.92474e-69
-1.56137e-67
5.73971e-67
-9.64539e-67
-4.6994e-67
7.5185e-66
-1.95973e-65
9.62906e-66
9.36503e-65
-3.00113e-64
1.70172e-64
1.39779e-63
-4.04177e-63
2.30248e-65
2.34815e-62
-4.15692e-62
-6.66778e-62
3.357e-61
-8.15205e-62
-1.77398e-60
2.39104e-60
7.43974e-60
-1.91623e-59
-2.68212e-59
1.17518e-58
9.16193e-59
-6.44451e-58
-3.69492e-58
3.33596e-57
2.20567e-57
-1.63813e-56
-1.68799e-56
7.30894e-56
1.27813e-55
-2.60371e-55
-8.41563e-55
3.98628e-55
4.40782e-54
3.66259e-54
-1.5207e-53
-3.94532e-53
3.94697e-54
1.81129e-52
3.2171e-52
-1.35497e-52
-1.64295e-51
-3.10359e-51
-6.01956e-52
1.09006e-50
3.04589e-50
4.03479e-50
-3.88058e-52
-1.47287e-49
-4.42487e-49
-8.77863e-49
-1.37264e-48
-1.78746e-48
-1.97738e-48
-1.85961e-48
-1.45797e-48
-8.96143e-49
-3.42369e-49
6.34601e-50
2.60858e-49
2.75156e-49
1.84412e-49
7.21311e-50
-7.54947e-51
-3.94477e-50
-3.59985e-50
-1.84837e-50
-2.95095e-51
4.47522e-51
5.08267e-51
2.75971e-51
4.93994e-52
-5.64941e-52
-1.04985e-78
-7.75398e-79
1.59177e-78
-2.22147e-77
1.6042e-76
-1.01229e-75
5.75762e-75
-3.02055e-74
1.47592e-73
-6.74483e-73
2.88468e-72
-1.1523e-71
4.27905e-71
-1.4654e-70
4.56773e-70
-1.26694e-69
2.99138e-69
-5.36987e-69
4.0561e-69
1.85335e-68
-1.06616e-67
3.16995e-67
-5.59368e-67
7.37901e-68
3.35667e-66
-1.24111e-65
2.09713e-65
9.82456e-66
-1.62298e-64
4.24967e-64
-2.12853e-64
-2.0208e-63
6.50615e-63
-3.73891e-63
-3.02005e-62
8.76802e-62
-1.11915e-63
-5.08319e-61
9.03076e-61
1.43937e-60
-7.27875e-60
1.79638e-60
3.84342e-59
-5.19378e-59
-1.61115e-58
4.15708e-58
5.80729e-58
-2.54832e-57
-1.98433e-57
1.39719e-56
8.01211e-57
-7.23135e-56
-4.78844e-56
3.55007e-55
3.665e-55
-1.5831e-54
-2.77369e-54
5.63228e-54
1.82485e-53
-8.56103e-54
-9.54706e-53
-7.97334e-53
3.28645e-52
8.55291e-52
-8.01384e-53
-3.91563e-51
-6.97805e-51
2.87393e-51
3.54827e-50
6.72439e-50
1.35755e-50
-2.34676e-49
-6.57901e-49
-8.74517e-49
-1.26674e-51
3.16063e-48
9.52169e-48
1.89083e-47
2.95789e-47
3.85271e-47
4.2625e-47
4.0086e-47
3.14233e-47
1.9306e-47
7.36428e-48
-1.38414e-48
-5.6354e-48
-5.93757e-48
-3.97586e-48
-1.55216e-48
1.66221e-49
8.52855e-49
7.7701e-49
3.98338e-49
6.30612e-50
-9.69571e-50
-1.09795e-49
-5.95064e-50
-1.05722e-50
1.22341e-50
2.94686e-77
1.74767e-77
-2.1403e-77
4.7417e-76
-3.64108e-75
2.37104e-74
-1.37346e-73
7.29272e-73
-3.594e-72
1.65298e-71
-7.10505e-71
2.84969e-70
-1.06182e-69
3.64702e-69
-1.13983e-68
3.16974e-68
-7.50585e-68
1.35333e-67
-1.04256e-67
-4.58804e-67
2.66659e-66
-7.9609e-66
1.41149e-65
-2.08689e-66
-8.39224e-65
3.11889e-64
-5.29539e-64
-2.39457e-64
4.07245e-63
-1.07061e-62
5.45134e-63
5.06896e-62
-1.63868e-61
9.52655e-62
7.58402e-61
-2.20966e-60
4.18331e-62
1.27867e-59
-2.27872e-59
-3.61176e-59
1.83352e-58
-4.58856e-59
-9.67503e-58
1.3104e-57
4.05419e-57
-1.04767e-56
-1.46106e-56
6.4198e-56
4.99368e-56
-3.51923e-55
-2.01839e-55
1.82119e-54
1.20753e-54
-8.93878e-54
-9.24322e-54
3.98424e-53
6.99226e-53
-1.41588e-52
-4.59715e-52
2.13848e-52
2.40269e-51
2.01553e-51
-8.25488e-51
-2.15416e-50
1.89905e-51
9.83782e-50
1.75836e-49
-7.09879e-50
-8.90728e-49
-1.6928e-48
-3.53487e-49
5.87465e-48
1.65172e-47
2.20222e-47
2.44922e-49
-7.88927e-47
-2.38258e-46
-4.73535e-46
-7.41068e-46
-9.6546e-46
-1.06825e-45
-1.0046e-45
-7.87399e-46
-4.83583e-46
-1.84207e-46
3.50466e-47
1.41503e-46
1.48942e-46
9.96548e-47
3.88393e-47
-4.2428e-48
-2.14293e-47
-1.94955e-47
-9.98067e-48
-1.56823e-48
2.44068e-48
2.75674e-48
1.4917e-48
2.63263e-49
-3.07847e-49
-8.02654e-76
-3.77794e-76
4.97762e-77
-9.49346e-75
7.94332e-74
-5.38065e-73
3.18515e-72
-1.71476e-71
8.53212e-71
-3.95203e-70
1.70802e-69
-6.88059e-69
2.57312e-68
-8.86561e-68
2.77869e-67
-7.74846e-67
1.84039e-66
-3.33353e-66
2.61993e-66
1.10899e-65
-6.51632e-65
1.95376e-64
-3.48127e-64
5.72058e-65
2.04999e-63
-7.65953e-63
1.30696e-62
5.69037e-63
-9.98576e-62
2.63609e-61
-1.36499e-61
-1.24248e-60
4.03383e-60
-2.37307e-60
-1.86116e-59
5.44267e-59
-1.37864e-60
-3.14347e-58
5.62006e-58
8.85625e-58
-4.51409e-57
1.14593e-57
2.38029e-56
-3.23151e-56
-9.9703e-56
2.5806e-55
3.59248e-55
-1.58069e-54
-1.22819e-54
8.66353e-54
4.96953e-54
-4.48275e-53
-2.97629e-53
2.19972e-52
2.27848e-52
-9.7999e-52
-1.72283e-51
3.47849e-51
1.13189e-50
-5.2188e-51
-5.9097e-50
-4.98016e-50
2.02628e-49
5.3027e-49
-4.36979e-50
-2.4155e-48
-4.33053e-48
1.71177e-48
2.18508e-47
4.1649e-47
8.99722e-48
-1.43692e-46
-4.05236e-46
-5.42006e-46
-1.14747e-47
1.92383e-45
5.82515e-45
1.15876e-44
1.81421e-44
2.36406e-44
2.616e-44
2.46012e-44
1.92794e-44
1.18358e-44
4.50194e-45
-8.67442e-46
-3.4722e-45
-3.65093e-45
-2.44077e-45
-9.49578e-46
1.0588e-46
5.26202e-46
4.77997e-46
2.44355e-46
3.8091e-47
-6.00465e-47
-6.76405e-47
-3.65397e-47
-6.40352e-48
7.57066e-48
2.1217e-74
7.7727e-75
1.07003e-74
1.73833e-73
-1.65483e-72
1.17948e-71
-7.1669e-71
3.92065e-70
-1.97206e-69
9.20654e-69
-4.00285e-68
1.62019e-67
-6.08278e-67
2.10284e-66
-6.61063e-66
1.84874e-65
-4.4051e-65
8.0172e-65
-6.43036e-65
-2.6144e-64
1.55421e-63
-4.68094e-63
8.38367e-63
-1.5205e-63
-4.8874e-62
1.83641e-61
-3.14973e-61
-1.31667e-61
2.39024e-60
-6.33727e-60
3.33826e-60
2.97296e-59
-9.69501e-59
5.77336e-59
4.4588e-58
-1.30893e-57
4.18475e-59
7.54475e-57
-1.35341e-56
-2.1199e-56
1.08509e-55
-2.79511e-56
-5.71749e-55
7.78118e-55
2.39388e-54
-6.20636e-54
-8.62397e-54
3.8e-53
2.94917e-53
-2.08234e-52
-1.19463e-52
1.07731e-51
7.1627e-52
-5.28518e-51
-5.484e-51
2.35339e-50
4.14469e-50
-8.34314e-50
-2.72104e-49
1.24299e-49
1.41915e-48
1.20161e-48
-4.85564e-48
-1.27445e-47
9.74135e-49
5.78998e-47
1.04134e-46
-4.02503e-47
-5.2328e-46
-1.00047e-45
-2.23624e-46
3.43054e-45
9.7057e-45
1.30243e-44
4.11781e-46
-4.57829e-44
-1.39007e-43
-2.76777e-43
-4.33527e-43
-5.65055e-43
-6.25335e-43
-5.88065e-43
-4.60785e-43
-2.82761e-43
-1.07388e-43
2.09664e-44
8.31754e-44
8.73612e-44
5.83536e-44
2.26601e-44
-2.58067e-45
-1.26142e-44
-1.14406e-44
-5.83965e-45
-9.02683e-46
1.44233e-45
1.62019e-45
8.73699e-46
1.5198e-46
-1.81771e-46
-5.44471e-73
-1.50454e-73
-5.40604e-73
-2.75378e-72
3.26177e-71
-2.48925e-70
1.56188e-69
-8.70626e-69
4.43363e-68
-2.08808e-67
9.13863e-67
-3.71815e-66
1.40183e-65
-4.8636e-65
1.53385e-64
-4.30274e-64
1.02868e-63
-1.88152e-63
1.54062e-63
6.00726e-63
-3.61592e-62
1.0942e-61
-1.97025e-61
3.92075e-62
1.13656e-60
-4.29587e-60
7.40773e-60
2.96369e-60
-5.5819e-59
1.48664e-58
-7.96947e-59
-6.94001e-58
2.27372e-57
-1.37103e-57
-1.0422e-56
3.07177e-56
-1.19393e-57
-1.76691e-55
3.18059e-55
4.95062e-55
-2.54519e-54
6.65524e-55
1.34008e-53
-1.82842e-53
-5.60838e-53
1.45655e-52
2.02003e-52
-8.91424e-52
-6.90995e-52
4.88393e-51
2.80229e-51
-2.52636e-50
-1.68212e-50
1.2391e-49
1.28804e-49
-5.51457e-49
-9.73007e-49
1.9525e-48
6.38304e-48
-2.8876e-48
-3.32534e-47
-2.82945e-47
1.13527e-46
2.9889e-46
-2.09911e-47
-1.35413e-45
-2.4435e-45
9.22259e-46
1.22263e-44
2.34506e-44
5.42459e-45
-7.9895e-44
-2.26799e-43
-3.05394e-43
-1.29739e-44
1.06264e-42
3.2358e-42
6.44912e-42
1.01063e-41
1.31757e-41
1.45828e-41
1.37135e-41
1.07437e-41
6.58994e-42
2.49871e-42
-4.94595e-43
-1.94394e-42
-2.03943e-42
-1.36102e-42
-5.27482e-43
6.13994e-44
2.95041e-43
2.67151e-43
1.36145e-43
2.0858e-44
-3.38057e-44
-3.78637e-44
-2.03807e-44
-3.51743e-45
4.25852e-45
1.35661e-71
2.68444e-72
1.92464e-71
3.15425e-71
-5.98842e-70
5.03498e-69
-3.28948e-68
1.87504e-67
-9.68521e-67
4.6066e-66
-2.03087e-65
8.30964e-65
-3.14729e-64
1.09615e-63
-3.46878e-63
9.76218e-63
-2.34215e-62
4.30624e-62
-3.60087e-62
-1.34437e-61
8.20066e-61
-2.49394e-60
4.51578e-60
-9.81084e-61
-2.57644e-59
9.79885e-59
-1.69916e-58
-6.48264e-59
1.27096e-57
-3.401e-57
1.85609e-57
1.57954e-56
-5.20016e-56
3.1762e-56
2.37526e-55
-7.03014e-55
3.23647e-56
4.03506e-54
-7.28975e-54
-1.12723e-53
5.82196e-53
-1.54592e-53
-3.06291e-52
4.19016e-52
1.28128e-51
-3.33363e-51
-4.61397e-51
2.0393e-50
1.57878e-50
-1.11707e-49
-6.41036e-50
5.77751e-49
3.85256e-49
-2.83297e-48
-2.95039e-48
1.26011e-47
2.22766e-47
-4.45563e-47
-1.46022e-46
6.53873e-47
7.59839e-46
6.49821e-46
-2.58814e-45
-6.83581e-45
4.35969e-46
3.08803e-44
5.59159e-44
-2.05763e-44
-2.78532e-43
-5.36028e-43
-1.28349e-43
1.81394e-42
5.16748e-42
6.98324e-42
3.75664e-43
-2.40395e-41
-7.34279e-41
-1.46497e-40
-2.29688e-40
-2.99524e-40
-3.31548e-40
-3.1178e-40
-2.4422e-40
-1.49729e-40
-5.6676e-41
1.13804e-41
4.42993e-41
4.64197e-41
3.09488e-41
1.19698e-41
-1.42511e-42
-6.72893e-42
-6.08232e-42
-3.09446e-42
-4.69612e-43
7.72675e-43
8.6279e-43
4.63512e-43
7.93309e-44
-9.72895e-44
-3.28173e-70
-4.22981e-71
-5.88465e-70
2.55361e-71
9.9372e-69
-9.69706e-68
6.6767e-67
-3.91005e-66
2.05329e-65
-9.87584e-65
4.38932e-64
-1.80714e-63
6.87861e-63
-2.40566e-62
7.64048e-62
-2.15767e-61
5.19598e-61
-9.60519e-61
8.20532e-61
2.92797e-60
-1.81178e-59
5.53882e-59
-1.00876e-58
2.38246e-59
5.68933e-58
-2.178e-57
3.79873e-57
1.37634e-57
-2.81968e-56
7.58263e-56
-4.21454e-56
-3.50277e-55
1.15906e-54
-7.17351e-55
-5.27485e-54
1.56805e-53
-8.38832e-55
-8.97978e-53
1.62841e-52
2.50082e-52
-1.29787e-51
3.50105e-52
6.82238e-51
-9.35905e-51
-2.85259e-50
7.43589e-50
1.02701e-49
-4.54669e-49
-3.51525e-49
2.49003e-48
1.42909e-48
-1.28764e-47
-8.59947e-48
6.3122e-47
6.58662e-47
-2.80607e-46
-4.9706e-46
9.90822e-46
3.25553e-45
-1.44225e-45
-1.692e-44
-1.45466e-44
5.74944e-44
1.52363e-43
-8.69396e-45
-6.86215e-43
-1.24703e-42
4.46642e-43
6.18287e-42
1.19405e-41
2.96022e-42
-4.0122e-41
-1.14724e-40
-1.55619e-40
-1.02059e-41
5.29694e-40
1.62324e-39
3.2421e-39
5.08584e-39
6.63398e-39
7.34413e-39
6.90614e-39
5.40869e-39
3.3144e-39
1.25231e-39
-2.5525e-40
-9.83673e-40
-1.02946e-39
-6.85669e-40
-2.64612e-40
3.22484e-41
1.49543e-40
1.34928e-40
6.85254e-41
1.02948e-41
-1.72109e-41
-1.91569e-41
-1.02706e-41
-1.74232e-42
2.16603e-42
7.70619e-69
5.22046e-70
1.63758e-68
-1.7011e-68
-1.38673e-67
1.76036e-66
-1.3013e-65
7.8793e-65
-4.21884e-64
2.05523e-63
-9.2177e-63
3.82109e-62
-1.46232e-61
5.13711e-61
-1.63794e-60
4.64249e-60
-1.12237e-59
2.08659e-59
-1.82167e-59
-6.20091e-59
3.89654e-58
-1.19781e-57
2.19478e-57
-5.61417e-58
-1.22293e-56
4.71407e-56
-8.27189e-56
-2.83253e-56
6.09096e-55
-1.64645e-54
9.3239e-55
7.56309e-54
-2.51597e-53
1.57845e-53
1.14064e-52
-3.40629e-52
2.08671e-53
1.94609e-51
-3.54296e-51
-5.40216e-51
2.81779e-50
-7.72514e-51
-1.47991e-49
2.03602e-49
6.18479e-49
-1.61538e-48
-2.22618e-48
9.87248e-48
7.62219e-48
-5.40557e-47
-3.10278e-47
2.79487e-46
1.86951e-46
-1.3697e-45
-1.43214e-45
6.08536e-45
1.08019e-44
-2.14562e-44
-7.06876e-44
3.09647e-44
3.66925e-43
3.17185e-43
-1.24369e-42
-3.30738e-42
1.65582e-43
1.48489e-41
2.7086e-41
-9.42433e-42
-1.3364e-40
-2.59035e-40
-6.65083e-41
8.63948e-40
2.48005e-39
3.37736e-39
2.6302e-40
-1.13596e-38
-3.49327e-38
-6.98523e-38
-1.09638e-37
-1.43053e-37
-1.58385e-37
-1.48937e-37
-1.16622e-37
-7.1428e-38
-2.69368e-38
5.57683e-39
2.12688e-38
2.22293e-38
1.47901e-38
5.69459e-39
-7.10981e-40
-3.23625e-39
-2.91442e-39
-1.47738e-39
-2.19572e-40
3.73347e-40
4.14173e-40
2.21577e-40
3.72352e-41
-4.69629e-41
-1.75604e-67
-2.31279e-69
-4.25171e-67
7.21388e-67
1.23467e-66
-2.96063e-65
2.4233e-64
-1.53066e-63
8.38802e-63
-4.14684e-62
1.87897e-61
-7.84825e-61
3.02132e-60
-1.06653e-59
3.41483e-59
-9.7166e-59
2.35885e-58
-4.4114e-58
3.93753e-58
1.27585e-57
-8.15149e-57
2.52047e-56
-4.64761e-56
1.28346e-56
2.55691e-55
-9.92827e-55
1.75316e-54
5.64208e-55
-1.28016e-53
3.47922e-53
-2.00832e-53
-1.58881e-52
5.31499e-52
-3.38142e-52
-2.39996e-51
7.20134e-51
-4.99436e-52
-4.10418e-50
7.50252e-50
1.13539e-49
-5.95369e-49
1.65962e-49
3.12408e-48
-4.31095e-48
-1.30492e-47
3.41532e-47
4.69585e-47
-2.08623e-46
-1.60833e-46
1.14204e-45
6.55597e-46
-5.90372e-45
-3.95555e-45
2.89245e-44
3.03063e-44
-1.28427e-43
-2.2846e-43
4.5213e-43
1.49372e-42
-6.46599e-43
-7.74344e-42
-6.73188e-42
2.61774e-41
6.98695e-41
-2.98833e-42
-3.12653e-40
-5.72564e-40
1.93121e-40
2.81058e-39
5.46871e-39
1.4546e-39
-1.80972e-38
-5.21655e-38
-7.13329e-38
-6.47076e-39
2.36923e-37
7.31284e-37
1.46409e-36
2.29934e-36
3.00104e-36
3.32314e-36
3.12485e-36
2.44637e-36
1.49751e-36
5.63594e-37
-1.18608e-37
-4.47459e-37
-4.67013e-37
-3.10377e-37
-1.19212e-37
1.52612e-38
6.81486e-38
6.12488e-38
3.09873e-38
4.55257e-39
-7.8815e-39
-8.71275e-39
-4.6507e-39
-7.73701e-40
9.90885e-40
3.88157e-66
-1.39119e-67
1.04305e-65
-2.25707e-65
1.09254e-65
4.45853e-64
-4.28068e-63
2.85775e-62
-1.61085e-61
8.10149e-61
-3.71369e-60
1.56431e-59
-6.06131e-59
2.15093e-58
-6.91794e-58
1.97664e-57
-4.81967e-57
9.06973e-57
-8.28005e-57
-2.54788e-56
1.65741e-55
-5.15651e-55
9.5714e-55
-2.84552e-55
-5.19572e-54
2.03307e-53
-3.61376e-53
-1.08578e-53
2.61578e-52
-7.14963e-52
4.20856e-52
3.24478e-51
-1.09185e-50
7.04713e-51
4.90952e-50
-1.48056e-49
1.1518e-50
8.4163e-49
-1.54511e-48
-2.31994e-48
1.2233e-47
-3.46881e-48
-6.41296e-47
8.87713e-47
2.67721e-46
-7.02215e-46
-9.63168e-46
4.28718e-45
3.29998e-45
-2.34632e-44
-1.34706e-44
1.21271e-43
8.13908e-44
-5.93973e-43
-6.23701e-43
2.63558e-42
4.69904e-42
-9.26389e-42
-3.06951e-41
1.31218e-41
1.58906e-40
1.38965e-40
-5.35718e-40
-1.43536e-39
5.04648e-41
6.40079e-39
1.17702e-38
-3.83931e-39
-5.74682e-38
-1.12271e-37
-3.09464e-38
3.68475e-37
1.0668e-36
1.4651e-36
1.52553e-37
-4.80168e-36
-1.48797e-35
-2.98294e-35
-4.6876e-35
-6.12012e-35
-6.77791e-35
-6.37338e-35
-4.98852e-35
-3.05188e-35
-1.14611e-35
2.45366e-36
9.15261e-36
9.53852e-36
6.33182e-36
2.42565e-36
-3.187e-37
-1.39532e-36
-1.25141e-36
-6.31803e-37
-9.16813e-38
1.61793e-37
1.782e-37
9.48935e-38
1.56176e-38
-2.03299e-38
-8.31845e-65
6.66346e-66
-2.43513e-64
6.11919e-64
-9.73731e-64
-5.51866e-63
7.09191e-62
-5.10719e-61
2.98144e-60
-1.53017e-59
7.10804e-59
-3.02256e-58
1.17959e-57
-4.20997e-57
1.36062e-56
-3.90498e-56
9.56597e-56
-1.81192e-55
1.6926e-55
4.93339e-55
-3.27256e-54
1.02484e-53
-1.91548e-53
6.11543e-54
1.02523e-52
-4.04463e-52
7.23886e-52
2.01449e-52
-5.19195e-51
1.4276e-50
-8.57349e-51
-6.43696e-50
2.17941e-49
-1.42767e-49
-9.75656e-49
2.95779e-48
-2.56174e-49
-1.67684e-47
3.09222e-47
4.6047e-47
-2.4423e-46
7.04829e-47
1.27907e-45
-1.77637e-45
-5.33664e-45
1.40295e-44
1.91942e-44
-8.56058e-44
-6.57855e-44
4.68395e-43
2.68936e-43
-2.42048e-42
-1.62736e-42
1.18516e-41
1.24729e-41
-5.25523e-41
-9.39172e-41
1.84411e-40
6.12901e-40
-2.58564e-40
-3.1684e-39
-2.78786e-39
1.06508e-38
2.86516e-38
-7.79542e-40
-1.27306e-37
-2.3511e-37
7.39667e-38
1.1415e-36
2.23952e-36
6.39928e-37
-7.28632e-36
-2.11935e-35
-2.92387e-35
-3.45473e-36
9.44804e-35
2.94026e-34
5.90258e-34
9.28189e-34
1.21226e-33
1.34275e-33
1.26258e-33
9.88021e-34
6.0408e-34
2.26336e-34
-4.93345e-35
-1.81869e-34
-1.89243e-34
-1.25465e-34
-4.79318e-35
6.46982e-36
2.77547e-35
2.48367e-35
1.25118e-35
1.7916e-36
-3.2271e-36
-3.54064e-36
-1.88069e-36
-3.0597e-37
4.05265e-37
1.72735e-63
-2.07773e-64
5.43323e-63
-1.51232e-62
3.41589e-62
3.85278e-62
-1.08031e-60
8.68838e-60
-5.30403e-59
2.7892e-58
-1.31572e-57
5.65489e-57
-2.22449e-56
7.9892e-56
-2.59564e-55
7.48507e-55
-1.84269e-54
3.51428e-54
-3.36065e-54
-9.25142e-54
6.26922e-53
-1.97696e-52
3.72192e-52
-1.27332e-52
-1.96266e-51
7.81035e-51
-1.40794e-50
-3.594e-51
1.00016e-49
-2.7674e-49
1.69645e-49
1.23929e-48
-4.22331e-48
2.80921e-48
1.88189e-47
-5.73673e-47
5.49721e-48
3.24313e-46
-6.00861e-46
-8.87019e-46
4.7338e-45
-1.39109e-45
-2.47658e-44
3.45132e-44
1.03267e-43
-2.72128e-43
-3.71312e-43
1.65953e-42
1.27309e-42
-9.07783e-42
-5.2125e-42
4.69015e-41
3.15907e-41
-2.29573e-40
-2.42175e-40
1.01726e-39
1.82241e-39
-3.56343e-39
-1.18812e-38
4.94264e-39
6.13285e-38
5.43085e-38
-2.05534e-37
-5.5524e-37
1.0491e-38
2.45771e-36
4.55951e-36
-1.37927e-36
-2.20068e-35
-4.33682e-35
-1.28514e-35
1.39805e-34
4.08656e-34
5.66488e-34
7.52581e-35
-1.80321e-33
-5.63728e-33
-1.13337e-32
-1.7835e-32
-2.33017e-32
-2.5814e-32
-2.42724e-32
-1.89897e-32
-1.16027e-32
-4.33665e-33
9.63281e-34
3.50765e-33
3.64386e-33
2.41262e-33
9.18988e-34
-1.27573e-34
-5.35878e-34
-4.78414e-34
-2.40445e-34
-3.39392e-35
6.24876e-35
6.82803e-35
3.61719e-35
5.81225e-36
-7.84257e-36
-3.47316e-62
5.45032e-63
-1.16151e-61
3.48388e-61
-9.42386e-61
6.19901e-61
1.45291e-59
-1.39557e-58
9.03876e-58
-4.89656e-57
2.35171e-56
-1.0231e-55
4.06045e-55
-1.46839e-54
4.79802e-54
-1.39071e-53
3.44174e-53
-6.61135e-53
6.47519e-53
1.67816e-52
-1.16409e-51
3.69811e-51
-7.01533e-51
2.5669e-51
3.64159e-50
-1.4626e-49
2.65649e-49
6.14554e-50
-1.86817e-48
5.20341e-48
-3.2576e-48
-2.31342e-47
7.93797e-47
-5.36404e-47
-3.51988e-46
1.07925e-45
-1.13827e-46
-6.08325e-45
1.1326e-44
1.65678e-44
-8.89956e-44
2.66448e-44
4.6509e-43
-6.50483e-43
-1.93807e-42
5.12002e-42
6.96646e-42
-3.12046e-41
-2.38942e-41
1.70647e-40
9.79903e-41
-8.8149e-40
-5.94848e-40
4.31325e-39
4.56114e-39
-1.90982e-38
-3.4302e-38
6.67785e-38
2.234e-37
-9.15666e-38
-1.15135e-36
-1.02637e-36
3.84629e-36
1.04366e-35
-1.06387e-37
-4.60123e-35
-8.57682e-35
2.48599e-35
4.11402e-34
8.14557e-34
2.50428e-34
-2.60035e-33
-7.64095e-33
-1.06455e-32
-1.57828e-33
3.3348e-32
1.04767e-31
2.10967e-31
3.32235e-31
4.3424e-31
4.81137e-31
4.52395e-31
3.53846e-31
2.16049e-31
8.05388e-32
-1.82488e-32
-6.56012e-32
-6.80297e-32
-4.49793e-32
-1.70792e-32
2.44115e-33
1.00337e-32
8.93549e-33
4.47971e-33
6.22576e-34
-1.17356e-33
-1.27687e-33
-6.74515e-34
-1.06944e-34
1.47196e-34
6.75681e-61
-1.28708e-61
2.38266e-60
-7.56698e-60
2.2886e-59
-3.69016e-59
-1.54537e-58
2.08912e-57
-1.46883e-56
8.25851e-56
-4.05188e-55
1.78751e-54
-7.16517e-54
2.61095e-53
-8.58463e-53
2.50205e-52
-6.2269e-52
1.20525e-51
-1.20956e-51
-2.94055e-51
2.09291e-50
-6.70144e-50
1.28144e-49
-5.00636e-50
-6.54193e-49
2.65348e-48
-4.85762e-48
-1.00287e-48
3.38008e-47
-9.48045e-47
6.06481e-47
4.18298e-46
-1.44572e-45
9.92983e-46
6.37771e-45
-1.96752e-44
2.27391e-45
1.10556e-43
-2.06897e-43
-2.9975e-43
1.62126e-42
-4.94819e-43
-8.46296e-42
1.18814e-41
3.52422e-41
-9.33497e-41
-1.26637e-40
5.68571e-40
4.34519e-40
-3.10845e-39
-1.78498e-39
1.60535e-38
1.08543e-38
-7.85241e-38
-8.32482e-38
3.47421e-37
6.25664e-37
-1.21245e-36
-4.0704e-36
1.64228e-36
2.09436e-35
1.88001e-35
-6.97306e-35
-1.90093e-34
2.04631e-37
8.34552e-34
1.56342e-33
-4.32452e-34
-7.4503e-33
-1.48245e-32
-4.73064e-33
4.68372e-32
1.384e-31
1.93849e-31
3.18751e-32
-5.96962e-31
-1.88539e-30
-3.80305e-30
-5.99394e-30
-7.83751e-30
-8.68549e-30
-8.16646e-30
-6.3858e-30
-3.89607e-30
-1.44829e-30
3.35104e-31
1.18854e-30
1.23025e-30
8.12187e-31
3.07362e-31
-4.52887e-32
-1.82008e-31
-1.6166e-31
-8.08323e-32
-1.1046e-32
2.13562e-32
2.31312e-32
1.21826e-32
1.90381e-33
-2.67686e-33
-1.27075e-59
2.81269e-60
-4.69375e-59
1.55958e-58
-5.09121e-58
1.12346e-57
6.91654e-58
-2.84712e-56
2.26185e-55
-1.33411e-54
6.71606e-54
-3.01116e-53
1.22067e-52
-4.48582e-52
1.48498e-51
-4.354e-51
1.0901e-50
-2.12691e-50
2.18832e-50
4.96985e-50
-3.63939e-49
1.17517e-48
-2.26608e-48
9.43883e-49
1.13659e-47
-4.65886e-47
8.59969e-47
1.55261e-47
-5.91755e-46
1.67203e-45
-1.0936e-45
-7.31814e-45
2.54874e-44
-1.7803e-44
-1.11826e-43
3.4722e-43
-4.38097e-44
-1.94465e-42
3.65901e-42
5.24749e-42
-2.85896e-41
8.9006e-42
1.49058e-40
-2.10101e-40
-6.20276e-40
1.64759e-39
2.22807e-39
-1.00284e-38
-7.64802e-39
5.48102e-38
3.14734e-38
-2.83004e-37
-1.91734e-37
1.38377e-36
1.47091e-36
-6.1174e-36
-1.10475e-35
2.13058e-35
7.17909e-35
-2.8484e-35
-3.68757e-34
-3.33421e-34
1.2234e-33
3.35154e-33
2.84469e-35
-1.4649e-32
-2.75877e-32
7.24805e-33
1.30562e-31
2.61154e-31
8.6542e-32
-8.16064e-31
-2.42587e-30
-3.41688e-30
-6.19946e-31
1.03318e-29
3.28185e-29
6.63203e-29
1.04617e-28
1.36855e-28
1.51691e-28
1.42623e-28
1.11493e-28
6.79687e-29
2.51897e-29
-5.95866e-30
-2.08382e-29
-2.1527e-29
-1.41889e-29
-5.35024e-30
8.13779e-31
3.19521e-30
2.83005e-30
1.41107e-30
1.89317e-31
-3.76182e-31
-4.05503e-31
-2.12883e-31
-3.27502e-32
4.71188e-32
2.30814e-58
-5.7661e-59
8.88207e-58
-3.06148e-57
1.05664e-56
-2.76022e-56
2.45453e-56
3.35881e-55
-3.26974e-54
2.05626e-53
-1.06841e-52
4.88213e-52
-2.0047e-51
7.43685e-51
-2.48038e-50
7.31977e-50
-1.84445e-49
3.62926e-49
-3.83026e-49
-8.08817e-49
6.11357e-48
-1.99198e-47
3.87517e-47
-1.71868e-47
-1.90746e-46
7.90725e-46
-1.47233e-45
-2.26063e-46
1.00129e-44
-2.85134e-44
1.9079e-44
1.23736e-43
-4.34458e-43
3.08801e-43
1.89523e-42
-5.92509e-42
8.1357e-43
3.30699e-41
-6.25785e-41
-8.87852e-41
4.87478e-40
-1.54905e-40
-2.53833e-39
3.59288e-39
1.05548e-38
-2.81188e-38
-3.7899e-38
1.71031e-37
1.30144e-37
-9.3448e-37
-5.36571e-37
4.82394e-36
3.27499e-36
-2.35779e-35
-2.51318e-35
1.04145e-34
1.88626e-34
-3.61947e-34
-1.22433e-33
4.77167e-34
6.27753e-33
5.71909e-33
-2.07486e-32
-5.71364e-32
-1.05892e-33
2.48569e-31
4.70723e-31
-1.16818e-31
-2.21155e-30
-4.44823e-30
-1.53157e-30
1.37378e-29
4.10998e-29
5.82351e-29
1.16083e-29
-1.72667e-28
-5.51901e-28
-1.1175e-27
-1.76445e-27
-2.30927e-27
-2.56012e-27
-2.40702e-27
-1.88107e-27
-1.14575e-27
-4.2324e-28
1.02487e-28
3.53147e-28
3.64056e-28
2.39544e-28
8.99752e-29
-1.41474e-29
-5.42241e-29
-4.78843e-29
-2.3803e-29
-3.12997e-30
6.40679e-30
6.87128e-30
3.595e-30
5.43692e-31
-8.01893e-31
-4.04481e-57
1.11711e-57
-1.61434e-56
5.73602e-56
-2.06563e-55
6.00432e-55
-1.03202e-54
-2.94626e-54
4.36993e-53
-3.00832e-52
1.62668e-51
-7.60338e-51
3.16855e-50
-1.18798e-49
3.99508e-49
-1.18731e-48
3.01253e-48
-5.98089e-48
6.47846e-48
1.2651e-47
-9.9081e-47
3.25975e-46
-6.40079e-46
3.01931e-46
3.08816e-45
-1.29576e-44
2.43489e-44
3.05272e-45
-1.63547e-43
4.69596e-43
-3.21663e-43
-2.01946e-42
7.15207e-42
-5.17596e-42
-3.10096e-41
9.765e-41
-1.45524e-41
-5.43035e-40
1.03377e-39
1.45007e-39
-8.02736e-39
2.60547e-39
4.17427e-38
-5.93469e-38
-1.73433e-37
4.63491e-37
6.22491e-37
-2.81707e-36
-2.13852e-36
1.53869e-35
8.83411e-36
-7.94108e-35
-5.4028e-35
3.87978e-34
4.14735e-34
-1.7122e-33
-3.11059e-33
5.93723e-33
2.01655e-32
-7.71056e-33
-1.032e-31
-9.47655e-32
3.39746e-31
9.40706e-31
2.73722e-32
-4.07233e-30
-7.75725e-30
1.80643e-30
3.61647e-29
7.31695e-29
2.61909e-29
-2.2316e-28
-6.72243e-28
-9.58534e-28
-2.09156e-28
2.78271e-27
8.95512e-27
1.81713e-26
2.87199e-26
3.76073e-26
4.17017e-26
3.92067e-26
3.06297e-26
1.86391e-26
6.86096e-27
-1.70305e-27
-5.77793e-27
-5.94302e-27
-3.90323e-27
-1.45996e-27
2.37683e-28
8.88472e-28
7.82104e-28
3.87518e-28
4.98426e-29
-1.05374e-28
-1.12408e-28
-5.85959e-29
-8.69786e-30
1.31786e-29
6.83067e-56
-2.05383e-56
2.81695e-55
-1.02687e-54
3.82388e-54
-1.19702e-53
2.68656e-53
3.66475e-54
-5.24768e-52
4.14748e-51
-2.3621e-50
1.1348e-49
-4.81105e-49
1.82559e-48
-6.1959e-48
1.85562e-47
-4.74333e-47
9.5068e-47
-1.05754e-46
-1.89769e-46
1.54706e-45
-5.14313e-45
1.01987e-44
-5.11173e-45
-4.81638e-44
2.04741e-43
-3.88464e-43
-3.72767e-44
2.5752e-42
-7.45952e-42
5.23423e-42
3.17713e-41
-1.13558e-40
8.37316e-41
4.89177e-40
-1.55231e-39
2.50502e-40
8.59927e-39
-1.64743e-38
-2.28303e-38
1.27498e-37
-4.23002e-38
-6.6205e-37
9.45673e-37
2.74835e-36
-7.36928e-36
-9.86004e-36
4.47551e-35
3.38879e-35
-2.4437e-34
-1.40277e-34
1.26086e-33
8.59739e-34
-6.15758e-33
-6.60197e-33
2.71487e-32
4.94798e-32
-9.39182e-32
-3.2036e-31
1.20015e-31
1.63623e-30
1.515e-30
-5.36406e-30
-1.49386e-29
-6.00873e-31
6.43321e-29
1.23307e-28
-2.67303e-29
-5.70175e-28
-1.16083e-27
-4.32242e-28
3.49323e-27
1.06011e-26
1.52174e-26
3.62371e-27
-4.31825e-26
-1.40006e-25
-2.84753e-25
-4.50543e-25
-5.90291e-25
-6.54712e-25
-6.15523e-25
-4.80699e-25
-2.92226e-25
-1.07155e-25
2.73078e-26
9.11454e-26
9.35243e-26
6.13027e-26
2.28258e-26
-3.85414e-27
-1.40373e-26
-1.23149e-26
-6.08049e-27
-7.63202e-28
1.67154e-27
1.77296e-27
9.20584e-28
1.33876e-28
-2.08879e-28
-1.11022e-54
3.59158e-55
-4.7159e-54
1.75712e-53
-6.7231e-53
2.22266e-52
-5.79502e-52
6.37978e-52
5.30296e-51
-5.32964e-50
3.25679e-49
-1.61871e-48
7.00305e-48
-2.69406e-47
9.23759e-47
-2.79007e-46
7.18945e-46
-1.45552e-45
1.66386e-45
2.72307e-45
-2.32372e-44
7.81257e-44
-1.56542e-43
8.32988e-44
7.22526e-43
-3.11495e-42
5.97065e-42
3.89321e-43
-3.90337e-41
1.14131e-40
-8.20967e-41
-4.81132e-40
1.7366e-39
-1.30553e-39
-7.42938e-39
2.37692e-38
-4.14551e-39
-1.31136e-37
2.52916e-37
3.46006e-37
-1.95047e-36
6.61994e-37
1.01128e-35
-1.4517e-35
-4.19426e-35
1.12862e-34
1.50402e-34
-6.8487e-34
-5.17141e-34
3.73814e-33
2.14531e-33
-1.92824e-32
-1.3178e-32
9.41263e-32
1.01235e-31
-4.14594e-31
-7.58155e-31
1.43065e-30
4.90217e-30
-1.79658e-30
-2.49854e-29
-2.33357e-29
8.15443e-29
2.28495e-28
1.18717e-29
-9.78562e-28
-1.88799e-27
3.77277e-28
8.65456e-27
1.77376e-26
6.87523e-27
-5.2614e-26
-1.60953e-25
-2.32694e-25
-6.03149e-26
6.4422e-25
2.10587e-24
4.29389e-24
6.8019e-24
8.91706e-24
9.89274e-24
9.3003e-24
7.26037e-24
4.40891e-24
1.60993e-24
-4.21944e-25
-1.38428e-24
-1.41675e-24
-9.26655e-25
-3.43338e-25
6.02398e-26
2.1355e-25
1.86666e-25
9.18196e-26
1.12162e-26
-2.55379e-26
-2.69232e-26
-1.39205e-26
-1.9791e-27
3.18849e-27
1.73431e-53
-5.9805e-54
7.5674e-53
-2.87346e-52
1.12437e-51
-3.87637e-51
1.11365e-50
-2.01409e-50
-3.57841e-50
6.26734e-49
-4.23833e-48
2.19957e-47
-9.74946e-47
3.81041e-46
-1.32167e-45
4.02927e-45
-1.04734e-44
2.1432e-44
-2.51935e-44
-3.72673e-44
3.35197e-43
-1.1408e-42
2.31118e-42
-1.30475e-42
-1.0408e-41
4.55612e-41
-8.82764e-41
-2.91421e-42
5.68652e-40
-1.67938e-39
1.23933e-39
7.00226e-39
-2.55402e-38
1.95908e-38
1.08462e-37
-3.50045e-37
6.58752e-38
1.92287e-36
-3.73497e-36
-5.03987e-36
2.86967e-35
-9.97229e-36
-1.48548e-34
2.14367e-34
6.15495e-34
-1.6625e-33
-2.20593e-33
1.00796e-32
7.58825e-33
-5.4995e-32
-3.1551e-32
2.83601e-31
1.94275e-31
-1.38374e-30
-1.4931e-30
6.08859e-30
1.11733e-29
-2.09543e-29
-7.21447e-29
2.58222e-29
3.66897e-28
3.45805e-28
-1.19176e-27
-3.36127e-27
-2.16293e-28
1.43106e-26
2.78036e-26
-5.05879e-27
-1.26277e-25
-2.6065e-25
-1.05245e-25
7.61262e-25
2.34906e-24
3.42203e-24
9.6342e-25
-9.22318e-24
-3.04239e-23
-6.22062e-23
-9.86666e-23
-1.29433e-22
-1.43635e-22
-1.35029e-22
-1.05368e-22
-6.39093e-23
-2.32302e-23
6.2733e-24
2.02103e-23
2.06267e-23
1.34601e-23
4.96043e-24
-9.06224e-25
-3.12339e-24
-2.71952e-24
-1.33226e-24
-1.57874e-25
3.7522e-25
3.93012e-25
2.02281e-25
2.80452e-26
-4.68039e-26
-2.59986e-52
9.48511e-53
-1.16258e-51
4.48816e-51
-1.78961e-50
6.37861e-50
-1.96198e-49
4.44741e-49
-1.2392e-49
-6.50722e-48
5.16222e-47
-2.83573e-46
1.2946e-45
-5.15393e-45
1.81116e-44
-5.57885e-44
1.46392e-43
-3.03008e-43
3.66539e-43
4.84687e-43
-4.63521e-42
1.59861e-41
-3.27681e-41
1.96147e-41
1.43704e-40
-6.39599e-40
1.25348e-39
-9.20101e-43
-7.94858e-39
2.37265e-38
-1.79781e-38
-9.77712e-38
3.60643e-37
-2.82484e-37
-1.51954e-36
4.94993e-36
-1.00383e-36
-2.70659e-35
5.29705e-35
7.04327e-35
-4.05386e-34
1.44372e-34
2.09488e-33
-3.04007e-33
-8.67081e-33
2.35157e-32
3.10582e-32
-1.42441e-31
-1.06886e-31
7.76856e-31
4.45489e-31
-4.00497e-30
-2.75012e-30
1.95315e-29
2.11466e-29
-8.58462e-29
-1.58121e-28
2.94615e-28
1.01948e-27
-3.55693e-28
-5.17258e-27
-4.92205e-27
1.67167e-26
4.74768e-26
3.6775e-27
-2.00869e-25
-3.9317e-25
6.41069e-26
1.76813e-24
3.67746e-24
1.54806e-24
-1.05622e-23
-3.29008e-23
-4.83206e-23
-1.47496e-23
1.26474e-22
4.2142e-22
8.64275e-22
1.37277e-21
1.80212e-21
2.00046e-21
1.88052e-21
1.46677e-21
8.88497e-22
3.21337e-22
-8.96021e-23
-2.8317e-22
-2.88135e-22
-1.87553e-22
-6.87126e-23
1.31008e-23
4.38467e-23
3.80164e-23
1.85414e-23
2.12325e-24
-5.29305e-24
-5.50564e-24
-2.81976e-24
-3.80132e-25
6.59589e-25
3.73373e-51
-1.43236e-51
1.70763e-50
-6.68927e-50
2.71053e-49
-9.92606e-49
3.21214e-48
-8.31243e-48
1.06807e-47
5.45313e-47
-5.80839e-46
3.45066e-45
-1.6344e-44
6.65014e-44
-2.37204e-43
7.39109e-43
-1.95963e-42
4.10597e-42
-5.11508e-42
-5.96333e-42
6.13227e-41
-2.14579e-40
4.45358e-40
-2.82541e-40
-1.89788e-39
8.60187e-39
-1.70634e-38
6.17023e-40
1.06403e-37
-3.21277e-37
2.50178e-37
1.30726e-36
-4.88067e-36
3.90717e-36
2.03913e-35
-6.70912e-35
1.46467e-35
3.6505e-34
-7.20197e-34
-9.42604e-34
5.48872e-33
-2.00531e-33
-2.83117e-32
4.13324e-32
1.17051e-31
-3.18834e-31
-4.19e-31
1.92936e-30
1.44262e-30
-1.0518e-29
-6.02802e-30
5.42074e-29
3.73146e-29
-2.64224e-28
-2.87088e-28
1.16e-27
2.14493e-27
-3.96908e-27
-1.38082e-26
4.68613e-27
6.98872e-26
6.71741e-26
-2.2464e-25
-6.42741e-25
-5.87162e-26
2.70125e-24
5.32928e-24
-7.62348e-25
-2.37145e-23
-4.97263e-23
-2.18422e-23
1.40255e-22
4.41405e-22
6.53965e-22
2.16117e-22
-1.65753e-21
-5.58566e-21
-1.14938e-20
-1.82844e-20
-2.40218e-20
-2.66744e-20
-2.50742e-20
-1.95476e-20
-1.18242e-20
-4.25268e-21
1.22735e-21
3.80056e-21
3.85459e-21
2.50216e-21
9.10784e-22
-1.81685e-22
-5.89713e-22
-5.08975e-22
-2.47038e-22
-2.72102e-23
7.15598e-23
7.38808e-23
3.76364e-23
4.91617e-24
-8.90797e-24
-5.12729e-50
2.05784e-50
-2.39417e-49
9.50125e-49
-3.90383e-48
1.46208e-47
-4.92101e-47
1.39035e-46
-2.61692e-46
-2.46032e-46
5.90303e-45
-3.93566e-44
1.95421e-43
-8.16231e-43
2.96192e-42
-9.34908e-42
2.50704e-41
-5.32219e-41
6.83367e-41
6.8999e-41
-7.74449e-40
2.75335e-39
-5.79109e-39
3.89256e-39
2.39219e-38
-1.10605e-37
2.22255e-37
-1.6316e-38
-1.36128e-36
4.16134e-36
-3.33332e-36
-1.6703e-35
6.31794e-35
-5.17408e-35
-2.61574e-34
8.69905e-34
-2.04279e-34
-4.7084e-33
9.36907e-33
1.20555e-32
-7.10867e-32
2.66731e-32
3.65958e-31
-5.37698e-31
-1.51115e-30
4.13558e-30
5.40552e-30
-2.49994e-29
-1.86196e-29
1.36223e-28
7.80123e-29
-7.01839e-28
-4.84333e-28
3.41914e-27
3.72874e-27
-1.49924e-26
-2.78358e-26
5.11355e-26
1.78909e-25
-5.89166e-26
-9.03151e-25
-8.77327e-25
2.88624e-24
8.32373e-24
8.83182e-25
-3.4733e-23
-6.91066e-23