/*--------------------------------*- C++ -*----------------------------------*\
  =========                 |
  \\      /  F ield         | OpenFOAM: The Open Source CFD Toolbox
   \\    /   O peration     | Website:  https://openfoam.org
    \\  /    A nd           | Version:  13
     \\/     M anipulation  |
\*---------------------------------------------------------------------------*/
FoamFile
{
    format      ascii;
    class       volScalarField;
    location    "8.9";
    object      T;
}
// * * * * * * * * * * * * * * * * * * * * * * * * * * * * * * * * * * * * * //

dimensions      [0 0 0 1 0 0 0];

internalField   nonuniform List<scalar> 
10000
(
1.10784e-24
1.48146e-23
2.34945e-23
-6.70623e-24
-1.14487e-22
-2.45424e-22
-1.19151e-22
7.0318e-22
2.15951e-21
2.43223e-21
-2.49065e-21
-1.52677e-20
-2.75105e-20
-1.00275e-20
7.6059e-20
2.2066e-19
2.67187e-19
-1.18983e-19
-1.20849e-18
-2.55189e-18
-2.22366e-18
2.91411e-18
1.43423e-17
2.60623e-17
1.94687e-17
-3.20168e-17
-1.38149e-16
-2.47486e-16
-2.11201e-16
1.85156e-16
1.05775e-15
2.12879e-15
2.4469e-15
4.4393e-16
-5.30108e-15
-1.44663e-14
-2.30473e-14
-2.23446e-14
-6.07e-16
5.14076e-14
1.31411e-13
2.1611e-13
2.5646e-13
1.82998e-13
-7.62793e-14
-5.68527e-13
-1.28817e-12
-2.16071e-12
-3.0484e-12
-3.78036e-12
-4.19943e-12
-4.20989e-12
-3.80809e-12
-3.08395e-12
-2.19266e-12
-1.30745e-12
-5.7138e-13
-6.48024e-14
2.02659e-13
2.77106e-13
2.32207e-13
1.4051e-13
5.40112e-14
-2.22181e-15
-2.55614e-14
-2.59407e-14
-1.61639e-14
-5.79573e-15
7.23763e-16
3.02202e-15
2.67178e-15
1.42205e-15
3.45219e-16
-2.281e-16
-4.0062e-16
-3.86151e-16
-3.35787e-16
-3.07022e-16
-3.01019e-16
-3.03883e-16
-3.06643e-16
-3.07392e-16
-3.07169e-16
-3.06927e-16
-3.06877e-16
-3.06906e-16
-3.06924e-16
-3.06924e-16
-3.06921e-16
-3.0692e-16
-3.06921e-16
-3.06921e-16
-3.06921e-16
-3.06921e-16
-3.06921e-16
-3.06921e-16
-3.06921e-16
-3.06921e-16
-3.06921e-16
-3.06921e-16
1.48146e-23
3.48409e-23
-4.94672e-24
-1.5644e-22
-3.49114e-22
-1.82222e-22
9.84357e-22
3.06259e-21
3.39185e-21
-3.83068e-21
-2.20958e-20
-3.82176e-20
-9.16207e-21
1.17821e-19
3.14813e-19
3.36628e-19
-2.90174e-19
-1.85117e-18
-3.47121e-18
-2.21422e-18
5.98323e-18
2.15301e-17
3.31629e-17
1.36102e-17
-6.77426e-17
-2.04721e-16
-2.9856e-16
-1.37963e-16
5.0397e-16
1.60631e-15
2.55223e-15
1.97822e-15
-1.77049e-15
-9.32374e-15
-1.8412e-14
-2.25333e-14
-1.17859e-14
2.29084e-14
8.25796e-14
1.52693e-13
1.99703e-13
1.75543e-13
3.07175e-14
-2.6798e-13
-7.22589e-13
-1.29913e-12
-1.93547e-12
-2.5581e-12
-3.09956e-12
-3.5087e-12
-3.7513e-12
-3.80536e-12
-3.65823e-12
-3.31067e-12
-2.7862e-12
-2.13837e-12
-1.44794e-12
-8.06971e-13
-2.94907e-13
4.32158e-14
2.06431e-13
2.31681e-13
1.757e-13
9.38465e-14
2.46727e-14
-1.52667e-14
-2.73356e-14
-2.20823e-14
-1.09272e-14
-1.36554e-15
3.92741e-15
5.54853e-15
5.25157e-15
4.49936e-15
3.98549e-15
3.80499e-15
3.80977e-15
3.85617e-15
3.8828e-15
3.88721e-15
3.88366e-15
3.88099e-15
3.88054e-15
3.8809e-15
3.88112e-15
3.88113e-15
3.88109e-15
3.88108e-15
3.88108e-15
3.88109e-15
3.88109e-15
3.88109e-15
3.88109e-15
3.88109e-15
3.88109e-15
3.88109e-15
3.88109e-15
3.88109e-15
3.88109e-15
3.88109e-15
2.34945e-23
-4.94673e-24
-1.25432e-22
-2.72514e-22
-1.18075e-22
8.51875e-22
2.50695e-21
2.5185e-21
-3.99418e-21
-1.94132e-20
-3.08493e-20
4.1442e-22
1.17032e-19
2.78639e-19
2.4054e-19
-4.24789e-19
-1.87201e-18
-3.02045e-18
-8.46994e-19
8.15806e-18
2.24903e-17
2.76393e-17
-5.47937e-18
-1.00571e-16
-2.26453e-16
-2.41819e-16
9.23076e-17
9.35603e-16
2.00501e-15
2.21895e-15
-1.81382e-16
-6.49045e-15
-1.53032e-14
-2.02444e-14
-1.0042e-14
2.63338e-14
8.86882e-14
1.5255e-13
1.63158e-13
4.77772e-14
-2.47443e-13
-7.03146e-13
-1.17866e-12
-1.40352e-12
-1.03497e-12
2.19555e-13
2.45306e-12
5.4488e-12
8.67408e-12
1.14054e-11
1.29528e-11
1.28984e-11
1.12491e-11
8.43632e-12
5.1611e-12
2.15352e-12
-5.39999e-14
-1.25264e-12
-1.54944e-12
-1.25325e-12
-7.20569e-13
-2.29331e-13
7.96446e-14
1.92578e-13
1.71335e-13
9.58333e-14
2.52167e-14
-1.47386e-14
-2.46729e-14
-1.72804e-14
-5.33613e-15
3.8561e-15
8.49987e-15
9.82384e-15
9.66667e-15
9.24779e-15
9.01296e-15
8.96321e-15
8.98557e-15
9.00796e-15
9.01449e-15
9.01297e-15
9.01101e-15
9.01053e-15
9.01072e-15
9.01088e-15
9.0109e-15
9.01087e-15
9.01086e-15
9.01086e-15
9.01087e-15
9.01087e-15
9.01087e-15
9.01087e-15
9.01087e-15
9.01087e-15
9.01087e-15
9.01087e-15
9.01087e-15
9.01087e-15
-6.70622e-24
-1.5644e-22
-2.72514e-22
1.37985e-23
1.17592e-21
2.7483e-21
1.76413e-21
-6.85183e-21
-2.3439e-20
-2.94296e-20
1.98131e-20
1.59917e-19
3.11562e-19
1.61027e-19
-7.47342e-19
-2.39269e-18
-3.16712e-18
6.42439e-19
1.24595e-17
2.82716e-17
2.76603e-17
-2.49804e-17
-1.50752e-16
-2.91592e-16
-2.47277e-16
2.86658e-16
1.45768e-15
2.75976e-15
2.58755e-15
-1.49876e-15
-1.10417e-14
-2.33922e-14
-2.83824e-14
-8.49864e-15
5.31468e-14
1.55262e-13
2.56187e-13
2.60983e-13
3.74626e-14
-5.23753e-13
-1.4088e-12
-2.37239e-12
-2.88e-12
-2.16193e-12
5.90503e-13
5.91861e-12
1.37803e-11
2.3363e-11
3.31419e-11
4.1215e-11
4.58298e-11
4.59208e-11
4.14533e-11
3.34388e-11
2.36125e-11
1.3901e-11
5.88188e-12
4.24106e-13
-2.39326e-12
-3.10467e-12
-2.53844e-12
-1.4966e-12
-5.43188e-13
6.00114e-14
2.97459e-13
2.86987e-13
1.72278e-13
5.72443e-14
-1.22254e-14
-3.46532e-14
-2.87486e-14
-1.40293e-14
-1.96355e-15
4.246e-15
6.01121e-15
5.78272e-15
5.21501e-15
4.90643e-15
4.84811e-15
4.88207e-15
4.91202e-15
4.91953e-15
4.91685e-15
4.91423e-15
4.91375e-15
4.91408e-15
4.91428e-15
4.91428e-15
4.91424e-15
4.91423e-15
4.91424e-15
4.91424e-15
4.91424e-15
4.91424e-15
4.91424e-15
4.91424e-15
4.91424e-15
4.91424e-15
4.91424e-15
4.91424e-15
-1.14487e-22
-3.49114e-22
-1.18075e-22
1.17592e-21
3.27699e-21
2.93033e-21
-6.33551e-21
-2.67745e-20
-3.8753e-20
1.16473e-20
1.7615e-19
3.77111e-19
2.48246e-19
-7.84798e-19
-2.7785e-18
-3.89621e-18
3.20059e-19
1.4159e-17
3.3111e-17
3.29977e-17
-2.83522e-17
-1.74875e-16
-3.35268e-16
-2.72694e-16
3.58407e-16
1.69206e-15
3.08197e-15
2.65886e-15
-2.21553e-15
-1.2837e-14
-2.55448e-14
-2.86347e-14
-3.74471e-15
6.42842e-14
1.68727e-13
2.60537e-13
2.41153e-13
-1.39791e-14
-5.92187e-13
-1.45154e-12
-2.33449e-12
-2.73559e-12
-1.96345e-12
6.95097e-13
5.74549e-12
1.32632e-11
2.27602e-11
3.31957e-11
4.31412e-11
5.10617e-11
5.56411e-11
5.60732e-11
5.22492e-11
4.47943e-11
3.49398e-11
2.42516e-11
1.42822e-11
6.23563e-12
7.43317e-13
-2.18829e-12
-3.05478e-12
-2.61446e-12
-1.62704e-12
-6.59186e-13
-4.91935e-15
2.84402e-13
3.05173e-13
1.97645e-13
7.36827e-14
-1.04402e-14
-4.61192e-14
-4.93974e-14
-4.00622e-14
-3.08297e-14
-2.59896e-14
-2.4792e-14
-2.51633e-14
-2.56886e-14
-2.59197e-14
-2.59321e-14
-2.58882e-14
-2.58641e-14
-2.58623e-14
-2.58665e-14
-2.58685e-14
-2.58683e-14
-2.58679e-14
-2.58678e-14
-2.58679e-14
-2.58679e-14
-2.58679e-14
-2.58679e-14
-2.58679e-14
-2.58679e-14
-2.58679e-14
-2.58679e-14
-2.58679e-14
-2.58679e-14
-2.58679e-14
-2.58679e-14
-2.45424e-22
-1.82222e-22
8.51875e-22
2.7483e-21
2.93033e-21
-4.42606e-21
-2.24284e-20
-3.53977e-20
4.82919e-21
1.49706e-19
3.37553e-19
2.36208e-19
-6.97755e-19
-2.534e-18
-3.52511e-18
6.09015e-19
1.38319e-17
3.10293e-17
2.73861e-17
-3.80042e-17
-1.81279e-16
-3.12878e-16
-1.76871e-16
5.50351e-16
1.86708e-15
2.84279e-15
1.34045e-15
-4.99999e-15
-1.58633e-14
-2.43426e-14
-1.54572e-14
2.77062e-14
1.07146e-13
1.87328e-13
1.83469e-13
-1.53303e-14
-4.72827e-13
-1.09758e-12
-1.55868e-12
-1.31219e-12
1.95261e-13
3.16408e-12
7.06111e-12
1.04516e-11
1.12528e-11
7.44992e-12
-1.93932e-12
-1.60822e-11
-3.21776e-11
-4.61509e-11
-5.40164e-11
-5.33641e-11
-4.43116e-11
-2.94762e-11
-1.2975e-11
1.09114e-12
1.00009e-11
1.30798e-11
1.14987e-11
7.43769e-12
3.08181e-12
-1.1023e-13
-1.64738e-12
-1.80768e-12
-1.22361e-12
-4.9538e-13
2.10785e-14
2.35068e-13
2.24578e-13
1.16746e-13
8.12001e-15
-5.97425e-14
-8.69169e-14
-9.04303e-14
-8.61912e-14
-8.24274e-14
-8.09879e-14
-8.09698e-14
-8.12781e-14
-8.14461e-14
-8.14645e-14
-8.14382e-14
-8.14231e-14
-8.14223e-14
-8.1425e-14
-8.1426e-14
-8.14259e-14
-8.14256e-14
-8.14256e-14
-8.14256e-14
-8.14256e-14
-8.14256e-14
-8.14256e-14
-8.14256e-14
-8.14256e-14
-8.14256e-14
-8.14256e-14
-8.14256e-14
-8.14256e-14
-8.14256e-14
-1.19151e-22
9.84357e-22
2.50695e-21
1.76413e-21
-6.33551e-21
-2.24284e-20
-2.76271e-20
2.45107e-20
1.688e-19
3.08688e-19
8.75841e-20
-9.68912e-19
-2.66575e-18
-2.83774e-18
2.89605e-18
1.72517e-17
3.15588e-17
1.62755e-17
-6.92307e-17
-2.24027e-16
-3.15423e-16
-3.38193e-17
9.39054e-16
2.41103e-15
2.97762e-15
-1.11277e-16
-9.30483e-15
-2.26262e-14
-2.86422e-14
-5.73452e-15
6.67738e-14
1.8157e-13
2.69059e-13
1.8372e-13
-2.48002e-13
-1.09022e-12
-2.09514e-12
-2.54249e-12
-1.29604e-12
2.76156e-12
9.89793e-12
1.85435e-11
2.46427e-11
2.19214e-11
3.41437e-12
-3.59423e-11
-9.64932e-11
-1.7206e-10
-2.50247e-10
-3.15225e-10
-3.52264e-10
-3.52421e-10
-3.15548e-10
-2.50364e-10
-1.71575e-10
-9.51953e-11
-3.39171e-11
5.81179e-12
2.42169e-11
2.64296e-11
1.96169e-11
1.02873e-11
2.66621e-12
-1.61833e-12
-2.87641e-12
-2.32068e-12
-1.18219e-12
-2.41579e-13
2.34133e-13
3.18596e-13
2.05545e-13
5.812e-14
-4.39383e-14
-8.95654e-14
-9.909e-14
-9.50189e-14
-9.01099e-14
-8.79441e-14
-8.77397e-14
-8.80873e-14
-8.83086e-14
-8.83437e-14
-8.8315e-14
-8.82962e-14
-8.82946e-14
-8.82976e-14
-8.82989e-14
-8.82987e-14
-8.82984e-14
-8.82984e-14
-8.82984e-14
-8.82985e-14
-8.82984e-14
-8.82984e-14
-8.82984e-14
-8.82984e-14
-8.82984e-14
-8.82984e-14
-8.82984e-14
-8.82984e-14
7.0318e-22
3.06259e-21
2.5185e-21
-6.85182e-21
-2.67745e-20
-3.53977e-20
2.45107e-20
2.00176e-19
3.81015e-19
1.31677e-19
-1.14657e-18
-3.2478e-18
-3.53023e-18
3.42678e-18
2.10235e-17
3.8555e-17
1.9527e-17
-8.5788e-17
-2.74544e-16
-3.80555e-16
-2.34066e-17
1.17482e-15
2.94608e-15
3.53554e-15
-3.96168e-16
-1.16734e-14
-2.75687e-14
-3.39067e-14
-4.67416e-15
8.40318e-14
2.21511e-13
3.2248e-13
2.12653e-13
-3.13244e-13
-1.33009e-12
-2.54635e-12
-3.11334e-12
-1.67416e-12
3.16358e-12
1.18925e-11
2.29322e-11
3.1716e-11
3.06626e-11
1.04889e-11
-3.71438e-11
-1.16289e-10
-2.23825e-10
-3.48269e-10
-4.71131e-10
-5.70798e-10
-6.27949e-10
-6.30831e-10
-5.78641e-10
-4.81814e-10
-3.59107e-10
-2.32462e-10
-1.21372e-10
-3.85602e-11
1.18457e-11
3.34171e-11
3.45699e-11
2.50418e-11
1.29756e-11
3.37591e-12
-1.96929e-12
-3.55763e-12
-2.90662e-12
-1.51788e-12
-3.40711e-13
2.9233e-13
4.57444e-13
3.77575e-13
2.43137e-13
1.4855e-13
1.08954e-13
1.0362e-13
1.09557e-13
1.1464e-13
1.16356e-13
1.162e-13
1.15747e-13
1.15558e-13
1.15566e-13
1.15608e-13
1.15622e-13
1.15619e-13
1.15615e-13
1.15615e-13
1.15615e-13
1.15616e-13
1.15616e-13
1.15616e-13
1.15616e-13
1.15616e-13
1.15616e-13
1.15616e-13
1.15616e-13
1.15616e-13
1.15616e-13
1.15616e-13
2.15951e-21
3.39185e-21
-3.99419e-21
-2.3439e-20
-3.8753e-20
4.82919e-21
1.688e-19
3.81015e-19
2.38674e-19
-9.1414e-19
-3.08985e-18
-3.91149e-18
2.15568e-18
1.94636e-17
3.87561e-17
2.37078e-17
-7.8467e-17
-2.6954e-16
-3.81968e-16
-2.2739e-17
1.19191e-15
2.94154e-15
3.33046e-15
-1.07179e-15
-1.27001e-14
-2.74637e-14
-2.92129e-14
8.10822e-15
1.0164e-13
2.23497e-13
2.66952e-13
5.71277e-14
-5.49078e-13
-1.47132e-12
-2.20844e-12
-1.81329e-12
7.71024e-13
5.96791e-12
1.26608e-11
1.76601e-11
1.61442e-11
3.32986e-12
-2.3073e-11
-6.07731e-11
-1.0254e-10
-1.38329e-10
-1.59347e-10
-1.62243e-10
-1.51135e-10
-1.36056e-10
-1.28224e-10
-1.34405e-10
-1.53281e-10
-1.75841e-10
-1.8963e-10
-1.84681e-10
-1.58092e-10
-1.151e-10
-6.6407e-11
-2.34554e-11
5.92842e-12
1.96234e-11
2.05864e-11
1.44076e-11
6.56142e-12
5.93312e-13
-2.30935e-12
-2.67783e-12
-1.73195e-12
-5.52379e-13
2.84815e-13
6.72596e-13
7.52523e-13
7.06202e-13
6.49313e-13
6.20679e-13
6.15573e-13
6.19177e-13
6.22458e-13
6.23448e-13
6.23237e-13
6.22926e-13
6.22833e-13
6.22858e-13
6.22886e-13
6.22891e-13
6.22887e-13
6.22885e-13
6.22885e-13
6.22886e-13
6.22886e-13
6.22886e-13
6.22886e-13
6.22886e-13
6.22886e-13
6.22886e-13
6.22886e-13
6.22886e-13
6.22886e-13
6.22886e-13
2.43224e-21
-3.83068e-21
-1.94132e-20
-2.94296e-20
1.16473e-20
1.49706e-19
3.08688e-19
1.31678e-19
-9.1414e-19
-2.70106e-18
-2.92562e-18
3.29386e-18
1.8901e-17
3.31945e-17
1.08278e-17
-9.33188e-17
-2.6337e-16
-3.10253e-16
1.54787e-16
1.42381e-15
2.93498e-15
2.45756e-15
-3.48674e-15
-1.62663e-14
-2.87358e-14
-2.02105e-14
3.71896e-14
1.50591e-13
2.601e-13
2.06937e-13
-2.21279e-13
-1.1106e-12
-2.12775e-12
-2.28922e-12
-1.15875e-13
5.51615e-12
1.38424e-11
2.06368e-11
1.78859e-11
-3.87152e-12
-4.99811e-11
-1.14206e-10
-1.72806e-10
-1.84659e-10
-1.00595e-10
1.18731e-10
4.82098e-10
9.53276e-10
1.45145e-09
1.86984e-09
2.10769e-09
2.10391e-09
1.85858e-09
1.43316e-09
9.29194e-10
4.54554e-10
9.09598e-11
-1.25142e-10
-2.03261e-10
-1.84226e-10
-1.18911e-10
-4.97588e-11
-1.05251e-12
2.12223e-11
2.31711e-11
1.51169e-11
5.71623e-12
-5.10576e-13
-2.80187e-12
-2.44096e-12
-1.08881e-12
1.40939e-13
8.49993e-13
1.10528e-12
1.12311e-12
1.07571e-12
1.04064e-12
1.02957e-12
1.03073e-12
1.03368e-12
1.03493e-12
1.03492e-12
1.03467e-12
1.03457e-12
1.03458e-12
1.0346e-12
1.03461e-12
1.03461e-12
1.0346e-12
1.0346e-12
1.0346e-12
1.0346e-12
1.0346e-12
1.0346e-12
1.0346e-12
1.0346e-12
1.0346e-12
1.0346e-12
1.0346e-12
1.0346e-12
-2.49064e-21
-2.20958e-20
-3.08493e-20
1.98131e-20
1.7615e-19
3.37553e-19
8.75842e-20
-1.14657e-18
-3.08985e-18
-2.92562e-18
4.87703e-18
2.2834e-17
3.67478e-17
4.45323e-18
-1.22785e-16
-3.13256e-16
-3.268e-16
2.94091e-16
1.83401e-15
3.48261e-15
2.42818e-15
-5.42268e-15
-2.10997e-14
-3.471e-14
-1.98536e-14
5.71689e-14
2.00977e-13
3.28592e-13
2.31099e-13
-3.63957e-13
-1.55451e-12
-2.87473e-12
-2.97785e-12
1.80362e-13
8.2136e-12
2.01717e-11
3.01617e-11
2.64375e-11
-5.89885e-12
-7.72417e-11
-1.81848e-10
-2.86366e-10
-3.25086e-10
-2.08257e-10
1.54149e-10
8.1776e-10
1.76973e-09
2.91024e-09
4.06134e-09
5.00563e-09
5.54482e-09
5.55865e-09
5.04246e-09
4.10913e-09
2.95425e-09
1.798e-09
8.2495e-10
1.42373e-10
-2.31561e-10
-3.5082e-10
-3.07244e-10
-1.94315e-10
-8.14908e-11
-4.51932e-12
3.02269e-11
3.38535e-11
2.25118e-11
9.04477e-12
-5.39194e-14
-3.71158e-12
-3.69021e-12
-2.23994e-12
-8.53935e-13
-6.7636e-14
1.92478e-13
1.88902e-13
1.24772e-13
8.45645e-14
7.47857e-14
7.80517e-14
8.18394e-14
8.30058e-14
8.27605e-14
8.24238e-14
8.23418e-14
8.23777e-14
8.24049e-14
8.24062e-14
8.24016e-14
8.24003e-14
8.24008e-14
8.24011e-14
8.24011e-14
8.2401e-14
8.2401e-14
8.2401e-14
8.2401e-14
8.2401e-14
8.2401e-14
8.2401e-14
-1.52677e-20
-3.82176e-20
4.14422e-22
1.59917e-19
3.77111e-19
2.36208e-19
-9.68912e-19
-3.2478e-18
-3.91149e-18
3.29386e-18
2.2834e-17
4.21497e-17
1.60536e-17
-1.15714e-16
-3.35493e-16
-3.95902e-16
2.18049e-16
1.88468e-15
3.8108e-15
2.94649e-15
-5.31822e-15
-2.2344e-14
-3.74244e-14
-2.16487e-14
6.12789e-14
2.13972e-13
3.42081e-13
2.19431e-13
-4.29388e-13
-1.65911e-12
-2.90306e-12
-2.71665e-12
8.80778e-13
9.09575e-12
2.02323e-11
2.77659e-11
2.03901e-11
-1.42607e-11
-8.18866e-11
-1.71899e-10
-2.50315e-10
-2.60177e-10
-1.32333e-10
1.95008e-10
7.54113e-10
1.53125e-09
2.46243e-09
3.44299e-09
4.34733e-09
5.05224e-09
5.45805e-09
5.50437e-09
5.17998e-09
4.52649e-09
3.6344e-09
2.62947e-09
1.64953e-09
8.15974e-10
2.0799e-10
-1.51349e-10
-2.92316e-10
-2.80653e-10
-1.92346e-10
-9.09203e-11
-1.46328e-11
2.44368e-11
3.25819e-11
2.36721e-11
1.04427e-11
2.95656e-13
-4.75117e-12
-5.90767e-12
-5.25698e-12
-4.33491e-12
-3.77934e-12
-3.60965e-12
-3.63126e-12
-3.68582e-12
-3.71358e-12
-3.71687e-12
-3.71251e-12
-3.70969e-12
-3.70932e-12
-3.70975e-12
-3.70999e-12
-3.70999e-12
-3.70994e-12
-3.70993e-12
-3.70993e-12
-3.70994e-12
-3.70994e-12
-3.70994e-12
-3.70994e-12
-3.70994e-12
-3.70994e-12
-3.70994e-12
-3.70994e-12
-3.70994e-12
-3.70994e-12
-3.70994e-12
-2.75105e-20
-9.16208e-21
1.17032e-19
3.11562e-19
2.48246e-19
-6.97755e-19
-2.66575e-18
-3.53023e-18
2.15568e-18
1.8901e-17
3.67479e-17
1.60536e-17
-9.88103e-17
-2.95194e-16
-3.48601e-16
2.17252e-16
1.74399e-15
3.43486e-15
2.3248e-15
-5.89118e-15
-2.18158e-14
-3.34947e-14
-1.14235e-14
7.69867e-14
2.20785e-13
3.01294e-13
7.53839e-14
-6.91369e-13
-1.88542e-12
-2.6305e-12
-1.20893e-12
4.11518e-12
1.31102e-11
2.11248e-11
1.81609e-11
-7.87561e-12
-6.23194e-11
-1.31525e-10
-1.74373e-10
-1.2742e-10
6.93848e-11
4.29684e-10
8.77695e-10
1.23214e-09
1.24048e-09
6.66582e-10
-5.94888e-10
-2.42806e-09
-4.48145e-09
-6.25376e-09
-7.2577e-09
-7.19761e-09
-6.08335e-09
-4.22833e-09
-2.13201e-09
-2.99655e-10
9.22329e-10
1.43083e-09
1.34803e-09
9.26226e-10
4.29281e-10
4.26255e-11
-1.60585e-10
-2.00899e-10
-1.46236e-10
-6.61681e-11
-4.96501e-12
2.33074e-11
2.51869e-11
1.44016e-11
2.25319e-12
-5.8639e-12
-9.42483e-12
-1.01246e-11
-9.75801e-12
-9.33969e-12
-9.1546e-12
-9.13642e-12
-9.16659e-12
-9.18652e-12
-9.19009e-12
-9.18765e-12
-9.18588e-12
-9.18565e-12
-9.18592e-12
-9.18605e-12
-9.18604e-12
-9.18601e-12
-9.18601e-12
-9.18601e-12
-9.18601e-12
-9.18601e-12
-9.18601e-12
-9.18601e-12
-9.18601e-12
-9.18601e-12
-9.18601e-12
-9.18601e-12
-9.18601e-12
-9.18601e-12
-1.00276e-20
1.17821e-19
2.7864e-19
1.61027e-19
-7.84798e-19
-2.534e-18
-2.83774e-18
3.42678e-18
1.94636e-17
3.31945e-17
4.45325e-18
-1.15714e-16
-2.95194e-16
-2.83333e-16
3.92573e-16
1.96768e-15
3.37616e-15
1.32777e-15
-8.37224e-15
-2.48716e-14
-3.27536e-14
1.56239e-15
1.09518e-13
2.63358e-13
3.04149e-13
-6.15978e-14
-1.07049e-12
-2.45624e-12
-2.94007e-12
-2.25796e-13
7.72291e-12
1.97754e-11
2.81349e-11
1.72659e-11
-3.05398e-11
-1.20344e-10
-2.23558e-10
-2.62343e-10
-1.17553e-10
3.23761e-10
1.08088e-09
1.97814e-09
2.58158e-09
2.23208e-09
2.08287e-10
-4.00355e-09
-1.04207e-08
-1.83833e-08
-2.65918e-08
-3.33983e-08
-3.72748e-08
-3.72953e-08
-3.34436e-08
-2.66218e-08
-1.83542e-08
-1.03074e-08
-3.81177e-09
4.44027e-10
2.46351e-09
2.76589e-09
2.09226e-09
1.1256e-09
3.17842e-10
-1.48459e-10
-2.96096e-10
-2.4727e-10
-1.30726e-10
-3.06623e-11
2.20903e-11
3.33359e-11
2.27189e-11
7.54264e-12
-3.33967e-12
-8.37546e-12
-9.52619e-12
-9.14561e-12
-8.62446e-12
-8.382e-12
-8.35282e-12
-8.38841e-12
-8.41286e-12
-8.41734e-12
-8.41443e-12
-8.41234e-12
-8.4121e-12
-8.41242e-12
-8.41256e-12
-8.41255e-12
-8.41252e-12
-8.41251e-12
-8.41252e-12
-8.41252e-12
-8.41252e-12
-8.41252e-12
-8.41252e-12
-8.41252e-12
-8.41252e-12
-8.41252e-12
-8.41252e-12
-8.41252e-12
7.6059e-20
3.14814e-19
2.4054e-19
-7.47342e-19
-2.7785e-18
-3.52511e-18
2.89606e-18
2.10235e-17
3.87561e-17
1.08278e-17
-1.22785e-16
-3.35493e-16
-3.48601e-16
3.92574e-16
2.20686e-15
3.93099e-15
1.77021e-15
-9.28069e-15
-2.85403e-14
-3.83579e-14
4.77151e-16
1.25319e-13
3.04809e-13
3.54116e-13
-6.93725e-14
-1.24185e-12
-2.85191e-12
-3.40878e-12
-2.4284e-13
9.00546e-12
2.30222e-11
3.27889e-11
2.03264e-11
-3.50218e-11
-1.39796e-10
-2.62387e-10
-3.14329e-10
-1.56786e-10
3.49493e-10
1.24788e-09
2.36723e-09
3.23231e-09
3.06593e-09
9.27374e-10
-4.01679e-09
-1.21562e-08
-2.31507e-08
-3.58187e-08
-4.8282e-08
-5.836e-08
-6.41133e-08
-6.43691e-08
-5.90556e-08
-4.92274e-08
-3.67733e-08
-2.39036e-08
-1.25874e-08
-4.11765e-09
1.07446e-09
3.33523e-09
3.50542e-09
2.56752e-09
1.35025e-09
3.69197e-10
-1.85355e-10
-3.57256e-10
-2.97444e-10
-1.58335e-10
-3.79253e-11
2.81945e-11
4.65559e-11
3.93674e-11
2.60549e-11
1.64755e-11
1.23886e-11
1.17951e-11
1.23801e-11
1.28971e-11
1.30759e-11
1.30622e-11
1.30163e-11
1.29968e-11
1.29974e-11
1.30016e-11
1.30031e-11
1.30028e-11
1.30025e-11
1.30024e-11
1.30025e-11
1.30025e-11
1.30025e-11
1.30025e-11
1.30025e-11
1.30025e-11
1.30025e-11
1.30025e-11
1.30025e-11
1.30025e-11
1.30025e-11
1.30025e-11
2.2066e-19
3.36628e-19
-4.2479e-19
-2.39269e-18
-3.89621e-18
6.09017e-19
1.72517e-17
3.8555e-17
2.37078e-17
-9.33188e-17
-3.13257e-16
-3.95902e-16
2.17252e-16
1.96768e-15
3.93099e-15
2.45324e-15
-7.81941e-15
-2.72081e-14
-3.90689e-14
-3.80792e-15
1.18248e-13
2.97525e-13
3.46214e-13
-8.3163e-14
-1.25222e-12
-2.784e-12
-3.0858e-12
4.95936e-13
9.86845e-12
2.25861e-11
2.82615e-11
9.12611e-12
-5.06394e-11
-1.45976e-10
-2.30107e-10
-2.08843e-10
3.05633e-11
5.48884e-10
1.26253e-09
1.87845e-09
1.91536e-09
8.43214e-10
-1.68971e-09
-5.63997e-09
-1.04878e-08
-1.53717e-08
-1.94103e-08
-2.20673e-08
-2.33657e-08
-2.38203e-08
-2.41072e-08
-2.46438e-08
-2.53146e-08
-2.55056e-08
-2.44331e-08
-2.15887e-08
-1.70573e-08
-1.15412e-08
-6.08986e-09
-1.68645e-09
1.0982e-09
2.23735e-09
2.1429e-09
1.41684e-09
5.98106e-10
1.06744e-11
-2.56359e-10
-2.73973e-10
-1.69766e-10
-4.99666e-11
3.18908e-11
6.82641e-11
7.46972e-11
6.94486e-11
6.36848e-11
6.09129e-11
6.04782e-11
6.08645e-11
6.11912e-11
6.12841e-11
6.12603e-11
6.12291e-11
6.12202e-11
6.1223e-11
6.12258e-11
6.12262e-11
6.12258e-11
6.12256e-11
6.12257e-11
6.12257e-11
6.12257e-11
6.12257e-11
6.12257e-11
6.12257e-11
6.12257e-11
6.12257e-11
6.12257e-11
6.12257e-11
6.12257e-11
6.12257e-11
2.67188e-19
-2.90174e-19
-1.87201e-18
-3.16713e-18
3.20056e-19
1.38319e-17
3.15588e-17
1.9527e-17
-7.8467e-17
-2.6337e-16
-3.268e-16
2.18049e-16
1.74399e-15
3.37616e-15
1.77021e-15
-7.8194e-15
-2.50415e-14
-3.31903e-14
5.45537e-15
1.24667e-13
2.83203e-13
2.7963e-13
-2.28701e-13
-1.43381e-12
-2.77183e-12
-2.37522e-12
2.50065e-12
1.30473e-11
2.45669e-11
2.29896e-11
-1.20562e-11
-9.19081e-11
-1.92143e-10
-2.29005e-10
-6.76774e-11
4.08093e-10
1.16215e-09
1.85958e-09
1.81855e-09
1.87551e-10
-3.59377e-09
-9.15199e-09
-1.4645e-08
-1.67223e-08
-1.12668e-08
5.12255e-09
3.33752e-08
7.06954e-08
1.1055e-07
1.44191e-07
1.6332e-07
1.62902e-07
1.4297e-07
1.08629e-07
6.82641e-08
3.07072e-08
2.54132e-09
-1.34563e-08
-1.83086e-08
-1.55606e-08
-9.47629e-09
-3.50816e-09
4.70362e-10
2.12056e-09
2.07536e-09
1.26181e-09
4.14753e-10
-1.08912e-10
-2.75921e-10
-2.17625e-10
-8.48987e-11
2.72856e-11
8.88952e-11
1.09542e-10
1.09901e-10
1.05314e-10
1.02242e-10
1.01374e-10
1.01537e-10
1.01807e-10
1.01909e-10
1.01902e-10
1.01879e-10
1.01871e-10
1.01872e-10
1.01874e-10
1.01875e-10
1.01874e-10
1.01874e-10
1.01874e-10
1.01874e-10
1.01874e-10
1.01874e-10
1.01874e-10
1.01874e-10
1.01874e-10
1.01874e-10
1.01874e-10
1.01874e-10
1.01874e-10
-1.18983e-19
-1.85117e-18
-3.02045e-18
6.42436e-19
1.4159e-17
3.10293e-17
1.62756e-17
-8.57879e-17
-2.69539e-16
-3.10253e-16
2.94091e-16
1.88468e-15
3.43486e-15
1.32778e-15
-9.28069e-15
-2.72081e-14
-3.31903e-14
1.39874e-14
1.4763e-13
3.12569e-13
2.73119e-13
-3.53e-13
-1.74273e-12
-3.16089e-12
-2.3499e-12
3.88463e-12
1.66587e-11
2.96932e-11
2.50997e-11
-2.25772e-11
-1.26589e-10
-2.52953e-10
-2.88198e-10
-4.78164e-11
6.3186e-10
1.70602e-09
2.6979e-09
2.58904e-09
2.19525e-11
-6.04671e-09
-1.53062e-08
-2.50204e-08
-2.952e-08
-2.08563e-08
9.12536e-09
6.5665e-08
1.47956e-07
2.47377e-07
3.48205e-07
4.31067e-07
4.78241e-07
4.79013e-07
4.33077e-07
3.50672e-07
2.49371e-07
1.48768e-07
6.50591e-08
7.36727e-09
-2.31695e-08
-3.17313e-08
-2.66527e-08
-1.618e-08
-6.25602e-09
2.27273e-10
2.94038e-09
3.00362e-09
1.88236e-09
6.81435e-10
-7.96605e-11
-3.51753e-10
-3.14036e-10
-1.69262e-10
-4.32034e-11
2.44815e-11
4.51439e-11
4.36335e-11
3.77384e-11
3.43247e-11
3.35944e-11
3.39251e-11
3.42523e-11
3.43428e-11
3.43172e-11
3.42883e-11
3.42822e-11
3.42856e-11
3.42879e-11
3.42879e-11
3.42875e-11
3.42874e-11
3.42874e-11
3.42875e-11
3.42875e-11
3.42875e-11
3.42875e-11
3.42875e-11
3.42875e-11
3.42875e-11
3.42875e-11
3.42875e-11
-1.20849e-18
-3.47121e-18
-8.46992e-19
1.24595e-17
3.3111e-17
2.73861e-17
-6.92308e-17
-2.74544e-16
-3.81968e-16
1.54787e-16
1.83401e-15
3.8108e-15
2.32479e-15
-8.37224e-15
-2.85403e-14
-3.90689e-14
5.45539e-15
1.4763e-13
3.39074e-13
3.30738e-13
-3.07329e-13
-1.81327e-12
-3.44588e-12
-2.76738e-12
3.77323e-12
1.75554e-11
3.19289e-11
2.75897e-11
-2.28974e-11
-1.33448e-10
-2.66898e-10
-3.02028e-10
-4.59641e-11
6.65287e-10
1.77156e-09
2.76835e-09
2.61695e-09
-2.6685e-11
-6.15539e-09
-1.54207e-08
-2.51597e-08
-2.99597e-08
-2.22291e-08
6.07646e-09
6.09086e-08
1.43533e-07
2.48827e-07
3.65205e-07
4.76397e-07
5.64724e-07
6.15026e-07
6.18204e-07
5.73437e-07
4.88463e-07
3.7781e-07
2.59406e-07
1.50473e-07
6.38465e-08
5.73646e-09
-2.45108e-08
-3.2794e-08
-2.75286e-08
-1.68522e-08
-6.66074e-09
1.00792e-10
3.01898e-09
3.16891e-09
2.02771e-09
7.45174e-10
-1.14036e-10
-4.73579e-10
-5.03552e-10
-4.07238e-10
-3.13393e-10
-2.64616e-10
-2.52735e-10
-2.5659e-10
-2.61907e-10
-2.64225e-10
-2.64339e-10
-2.63894e-10
-2.63652e-10
-2.63635e-10
-2.63677e-10
-2.63697e-10
-2.63696e-10
-2.63691e-10
-2.6369e-10
-2.63691e-10
-2.63691e-10
-2.63691e-10
-2.63691e-10
-2.63691e-10
-2.63691e-10
-2.63691e-10
-2.63691e-10
-2.63691e-10
-2.63691e-10
-2.63691e-10
-2.63691e-10
-2.5519e-18
-2.21422e-18
8.15807e-18
2.82716e-17
3.29977e-17
-3.80043e-17
-2.24027e-16
-3.80555e-16
-2.27389e-17
1.42381e-15
3.48261e-15
2.94649e-15
-5.89118e-15
-2.48716e-14
-3.83579e-14
-3.80792e-15
1.24667e-13
3.12569e-13
3.30738e-13
-2.41675e-13
-1.66165e-12
-3.23087e-12
-2.55854e-12
3.8231e-12
1.70121e-11
2.97218e-11
2.21064e-11
-3.17904e-11
-1.39099e-10
-2.49108e-10
-2.27819e-10
1.05958e-10
8.44034e-10
1.77363e-09
2.20843e-09
1.07483e-09
-2.56939e-09
-8.62154e-09
-1.5015e-08
-1.74743e-08
-1.05788e-08
9.77717e-09
4.33457e-08
8.35084e-08
1.17929e-07
1.32512e-07
1.1754e-07
7.32612e-08
1.18501e-08
-4.59955e-08
-7.89093e-08
-7.38028e-08
-3.16547e-08
3.27382e-08
9.69768e-08
1.40238e-07
1.51103e-07
1.30678e-07
9.02114e-08
4.5068e-08
8.29477e-09
-1.34127e-08
-2.02245e-08
-1.68959e-08
-9.46171e-09
-2.60278e-09
1.46012e-09
2.66141e-09
2.06978e-09
8.88337e-10
-1.07296e-10
-6.59225e-10
-8.43622e-10
-8.40796e-10
-7.91302e-10
-7.57595e-10
-7.47399e-10
-7.48947e-10
-7.52129e-10
-7.535e-10
-7.53507e-10
-7.53222e-10
-7.53096e-10
-7.53103e-10
-7.53131e-10
-7.53139e-10
-7.53136e-10
-7.53134e-10
-7.53134e-10
-7.53134e-10
-7.53134e-10
-7.53134e-10
-7.53134e-10
-7.53134e-10
-7.53134e-10
-7.53134e-10
-7.53134e-10
-7.53134e-10
-7.53134e-10
-7.53134e-10
-2.22366e-18
5.98323e-18
2.24904e-17
2.76603e-17
-2.83522e-17
-1.81279e-16
-3.15423e-16
-2.3407e-17
1.19191e-15
2.93498e-15
2.42818e-15
-5.31822e-15
-2.18158e-14
-3.27537e-14
4.77124e-16
1.18248e-13
2.83203e-13
2.73119e-13
-3.07329e-13
-1.66165e-12
-3.00809e-12
-1.8854e-12
5.05785e-12
1.82408e-11
2.87398e-11
1.44898e-11
-5.06937e-11
-1.66504e-10
-2.60778e-10
-1.65993e-10
3.19733e-10
1.23834e-09
2.18327e-09
2.10843e-09
-4.43097e-10
-6.4151e-09
-1.46976e-08
-2.06732e-08
-1.61411e-08
8.05268e-09
5.62937e-08
1.20869e-07
1.7652e-07
1.81206e-07
8.59512e-08
-1.47217e-07
-5.24993e-07
-1.00912e-06
-1.5175e-06
-1.94299e-06
-2.18508e-06
-2.18283e-06
-1.93601e-06
-1.50535e-06
-9.91861e-07
-5.03761e-07
-1.24348e-07
1.07438e-07
1.98527e-07
1.88003e-07
1.26378e-07
5.70538e-08
6.01564e-09
-1.90494e-08
-2.31041e-08
-1.60689e-08
-6.77604e-09
-1.78327e-10
2.56298e-09
2.50971e-09
1.28068e-09
4.9108e-11
-7.07955e-10
-1.00621e-09
-1.04559e-09
-1.00306e-09
-9.65974e-10
-9.52413e-10
-9.52539e-10
-9.55469e-10
-9.56934e-10
-9.57035e-10
-9.56787e-10
-9.56666e-10
-9.56668e-10
-9.56691e-10
-9.56698e-10
-9.56696e-10
-9.56694e-10
-9.56694e-10
-9.56695e-10
-9.56695e-10
-9.56695e-10
-9.56695e-10
-9.56695e-10
-9.56695e-10
-9.56695e-10
-9.56695e-10
-9.56695e-10
-9.56695e-10
2.91411e-18
2.15301e-17
2.76393e-17
-2.49804e-17
-1.74875e-16
-3.12878e-16
-3.38193e-17
1.17482e-15
2.94154e-15
2.45756e-15
-5.42268e-15
-2.2344e-14
-3.34947e-14
1.5624e-15
1.25319e-13
2.97525e-13
2.7963e-13
-3.53e-13
-1.81327e-12
-3.23087e-12
-1.8854e-12
5.91171e-12
2.05248e-11
3.174e-11
1.44048e-11
-6.13053e-11
-1.94527e-10
-3.00412e-10
-1.80881e-10
4.0606e-10
1.51589e-09
2.66277e-09
2.56114e-09
-6.41155e-10
-8.25922e-09
-1.91031e-08
-2.74103e-08
-2.22686e-08
9.5872e-09
7.65706e-08
1.71745e-07
2.62929e-07
2.89266e-07
1.69639e-07
-1.75426e-07
-7.92803e-07
-1.6672e-06
-2.7059e-06
-3.74789e-06
-4.59872e-06
-5.08233e-06
-5.09258e-06
-4.62593e-06
-3.78284e-06
-2.73733e-06
-1.68604e-06
-7.95147e-07
-1.63133e-07
1.90569e-07
3.11575e-07
2.80827e-07
1.82438e-07
8.02846e-08
8.4931e-09
-2.54751e-08
-3.06044e-08
-2.11887e-08
-9.05588e-09
-4.85533e-10
3.20964e-09
3.45105e-09
2.25152e-09
1.01407e-09
2.83152e-10
2.82481e-11
2.25112e-11
7.93737e-11
1.17171e-10
1.2712e-10
1.24451e-10
1.20929e-10
1.19767e-10
1.19962e-10
1.20277e-10
1.20361e-10
1.20329e-10
1.20303e-10
1.20301e-10
1.20306e-10
1.20307e-10
1.20307e-10
1.20306e-10
1.20306e-10
1.20306e-10
1.20306e-10
1.20306e-10
1.20306e-10
1.20306e-10
1.20306e-10
1.20306e-10
1.43423e-17
3.31629e-17
-5.47943e-18
-1.50752e-16
-3.35268e-16
-1.76871e-16
9.39055e-16
2.94608e-15
3.33045e-15
-3.48675e-15
-2.10997e-14
-3.74244e-14
-1.14234e-14
1.09518e-13
3.04809e-13
3.46214e-13
-2.28701e-13
-1.74273e-12
-3.44588e-12
-2.55853e-12
5.05786e-12
2.05248e-11
3.39927e-11
1.9152e-11
-5.69322e-11
-1.96616e-10
-3.14087e-10
-2.02753e-10
3.91681e-10
1.52696e-09
2.69512e-09
2.57279e-09
-6.94008e-10
-8.31307e-09
-1.88718e-08
-2.64509e-08
-2.04457e-08
1.12442e-08
7.51286e-08
1.62801e-07
2.43305e-07
2.62042e-07
1.49552e-07
-1.60315e-07
-7.07785e-07
-1.4879e-06
-2.44192e-06
-3.4631e-06
-4.41538e-06
-5.15976e-06
-5.58153e-06
-5.6127e-06
-5.24556e-06
-4.5352e-06
-3.59007e-06
-2.55106e-06
-1.5628e-06
-7.43697e-07
-1.63015e-07
1.67899e-07
2.8807e-07
2.66623e-07
1.77985e-07
8.14679e-08
1.10461e-08
-2.38863e-08
-3.03552e-08
-2.16175e-08
-9.35419e-09
-1.41797e-10
4.36035e-09
5.34851e-09
4.73568e-09
3.90102e-09
3.40498e-09
3.25607e-09
3.27693e-09
3.32595e-09
3.35058e-09
3.35337e-09
3.34944e-09
3.34693e-09
3.34662e-09
3.347e-09
3.34721e-09
3.34721e-09
3.34717e-09
3.34716e-09
3.34717e-09
3.34717e-09
3.34717e-09
3.34717e-09
3.34717e-09
3.34717e-09
3.34717e-09
3.34717e-09
3.34717e-09
3.34717e-09
3.34717e-09
3.34717e-09
2.60624e-17
1.36103e-17
-1.00571e-16
-2.91592e-16
-2.72695e-16
5.50351e-16
2.41103e-15
3.53554e-15
-1.0718e-15
-1.62663e-14
-3.47101e-14
-2.16487e-14
7.69868e-14
2.63358e-13
3.54116e-13
-8.31632e-14
-1.43381e-12
-3.16089e-12
-2.76738e-12
3.82311e-12
1.82408e-11
3.174e-11
1.9152e-11
-5.19558e-11
-1.83779e-10
-2.8951e-10
-1.6271e-10
4.37028e-10
1.51585e-09
2.46592e-09
1.87964e-09
-1.96262e-09
-9.60422e-09
-1.82735e-08
-2.04874e-08
-5.52461e-09
3.46615e-08
9.59413e-08
1.53411e-07
1.6087e-07
6.44534e-08
-1.6977e-07
-5.2411e-07
-9.11015e-07
-1.18528e-06
-1.19191e-06
-8.35484e-07
-1.40444e-07
7.31397e-07
1.52364e-06
1.9772e-06
1.93314e-06
1.39929e-06
5.48459e-07
-3.5129e-07
-1.0415e-06
-1.36545e-06
-1.30923e-06
-9.8112e-07
-5.47677e-07
-1.61435e-07
8.81445e-08
1.86172e-07
1.72023e-07
1.0523e-07
3.61002e-08
-8.58073e-09
-2.46809e-08
-2.12623e-08
-1.02514e-08