/*--------------------------------*- C++ -*----------------------------------*\
  =========                 |
  \\      /  F ield         | OpenFOAM: The Open Source CFD Toolbox
   \\    /   O peration     | Website:  https://openfoam.org
    \\  /    A nd           | Version:  13
     \\/     M anipulation  |
\*---------------------------------------------------------------------------*/
FoamFile
{
    format      ascii;
    class       volScalarField;
    location    "4.3";
    object      T;
}
// * * * * * * * * * * * * * * * * * * * * * * * * * * * * * * * * * * * * * //

dimensions      [0 0 0 1 0 0 0];

internalField   nonuniform List<scalar> 
10000
(
1.91086e-69
-6.95189e-70
8.53377e-69
-3.29152e-68
1.31108e-67
-4.66451e-67
1.42958e-66
-3.2068e-66
6.18616e-67
4.91298e-65
-3.84895e-64
2.10587e-63
-9.59499e-63
3.81534e-62
-1.33968e-61
4.12407e-61
-1.08161e-60
2.2374e-60
-2.70266e-60
-3.59444e-60
3.42645e-59
-1.18096e-58
2.41944e-58
-1.44469e-58
-1.06227e-57
4.72463e-57
-9.25514e-57
-4.78007e-60
5.87242e-56
-1.75227e-55
1.32665e-55
7.22337e-55
-2.66357e-54
2.08524e-54
1.1225e-53
-3.65583e-53
7.40466e-54
1.99917e-52
-3.91222e-52
-5.2026e-52
2.99423e-51
-1.06643e-51
-1.54731e-50
2.24565e-50
6.40418e-50
-1.73708e-49
-2.2937e-49
1.05221e-48
7.89217e-49
-5.73869e-48
-3.28874e-48
2.95859e-47
2.03035e-47
-1.44293e-46
-1.56154e-46
6.34267e-46
1.16785e-45
-2.17718e-45
-7.53086e-45
2.63204e-45
3.82159e-44
3.63453e-44
-1.23538e-43
-3.50735e-43
-2.69576e-44
1.48435e-42
2.90448e-42
-4.75657e-43
-1.30667e-41
-2.71696e-41
-1.14226e-41
7.80753e-41
2.43131e-40
3.57002e-40
1.08767e-40
-9.35075e-40
-3.11493e-39
-6.38779e-39
-1.01457e-38
-1.33186e-38
-1.47843e-38
-1.38979e-38
-1.08402e-38
-6.56671e-39
-2.37526e-39
6.61774e-40
2.09244e-39
2.1293e-39
1.3861e-39
5.07902e-40
-9.67236e-41
-3.23982e-40
-2.80937e-40
-1.37036e-40
-1.57086e-41
3.91049e-41
4.06838e-41
2.08397e-41
2.81184e-42
-4.87317e-42
-1.87681e-68
7.10972e-69
-8.53429e-68
3.33068e-67
-1.34407e-66
4.88859e-66
-1.56238e-65
3.92212e-65
-4.17843e-65
-3.26417e-64
3.13649e-63
-1.81894e-62
8.52241e-62
-3.44597e-61
1.22398e-60
-3.80166e-60
1.00511e-59
-2.0991e-59
2.59493e-59
3.13025e-59
-3.15509e-58
1.09978e-57
-2.27521e-57
1.42248e-57
9.76822e-57
-4.40651e-56
8.71436e-56
-2.37855e-57
-5.45715e-55
1.64304e-54
-1.27098e-54
-6.70634e-54
2.49644e-53
-1.98821e-53
-1.04512e-52
3.43056e-52
-7.3665e-53
-1.86875e-51
3.68016e-51
4.83364e-51
-2.80739e-50
1.02024e-50
1.44867e-49
-2.11243e-49
-5.99055e-49
1.63048e-48
2.14446e-48
-9.86871e-48
-7.38113e-48
5.38055e-47
3.0819e-47
-2.77329e-46
-1.90678e-46
1.35202e-45
1.46718e-45
-5.93772e-45
-1.0966e-44
2.03342e-44
7.06299e-44
-2.41597e-44
-3.57729e-43
-3.42906e-43
1.15153e-42
3.28825e-42
2.885e-43
-1.38437e-41
-2.72568e-41
4.03646e-42
1.21613e-40
2.54488e-40
1.1064e-40
-7.21009e-40
-2.26338e-39
-3.34625e-39
-1.08571e-39
8.54719e-39
2.87239e-38
5.90583e-38
9.39146e-38
1.2336e-37
1.36972e-37
1.28756e-37
1.00389e-37
6.07453e-38
2.18772e-38
-6.26182e-39
-1.9485e-38
-1.97777e-38
-1.2847e-38
-4.68372e-39
9.2418e-40
3.02187e-39
2.61104e-39
1.26882e-39
1.41118e-40
-3.6623e-40
-3.78799e-40
-1.93223e-40
-2.54391e-41
4.56012e-41
2.5804e-67
-1.00236e-67
1.18682e-66
-4.66554e-66
1.89763e-65
-6.99201e-65
2.28758e-64
-6.07307e-64
8.89042e-64
3.11282e-63
-3.74535e-62
2.28128e-61
-1.09238e-60
4.4726e-60
-1.60205e-59
5.00794e-59
-1.3316e-58
2.79956e-58
-3.51567e-58
-3.95117e-58
4.1529e-57
-1.45922e-56
3.03938e-56
-1.95924e-56
-1.28449e-55
5.85288e-55
-1.16514e-54
5.41623e-56
7.22985e-54
-2.1905e-53
1.71954e-53
8.87899e-53
-3.32724e-52
2.68128e-52
1.38649e-51
-4.57608e-51
1.02146e-51
2.48605e-50
-4.91742e-50
-6.40271e-50
3.74267e-49
-1.37912e-49
-1.92935e-48
2.82265e-48
7.97323e-48
-2.17537e-47
-2.85315e-47
1.31596e-46
9.82257e-47
-7.17311e-46
-4.10694e-46
3.69663e-45
2.54482e-45
-1.80166e-44
-1.9588e-44
7.90755e-44
1.46344e-43
-2.70362e-43
-9.41804e-43
3.17311e-43
4.76375e-42
4.59122e-42
-1.52893e-41
-4.38359e-41
-4.17694e-42
1.83879e-40
3.63606e-40
-4.98916e-41
-1.61297e-39
-3.39043e-39
-1.50786e-39
9.51008e-39
3.00244e-38
4.46022e-38
1.50864e-38
-1.11906e-37
-3.78469e-37
-7.79613e-37
-1.24081e-36
-1.63055e-36
-1.8108e-36
-1.70214e-36
-1.32677e-36
-8.02192e-37
-2.88013e-37
8.40104e-38
2.58528e-37
2.61939e-37
1.6989e-37
6.17151e-38
-1.24815e-38
-4.01402e-38
-3.45962e-38
-1.67668e-38
-1.82415e-39
4.87862e-39
5.02545e-39
2.55587e-39
3.30571e-40
-6.07113e-40
-3.4525e-66
1.37401e-66
-1.60573e-65
6.35639e-65
-2.60465e-64
9.71302e-64
-3.24506e-63
9.02499e-63
-1.60513e-62
-2.34829e-62
4.26228e-61
-2.76232e-60
1.35678e-59
-5.63407e-59
2.03686e-58
-6.41159e-58
1.71528e-57
-3.63173e-57
4.63549e-57
4.82063e-57
-5.31229e-56
1.88267e-55
-3.94962e-55
2.62639e-55
1.64134e-54
-7.55986e-54
1.51547e-53
-1.00913e-54
-9.31302e-53
2.84054e-52
-2.26409e-52
-1.14293e-51
4.31326e-51
-3.51885e-51
-1.78855e-50
5.93746e-50
-1.37848e-50
-3.21646e-49
6.39185e-49
8.24593e-49
-4.85318e-48
1.81437e-48
2.49916e-47
-3.66907e-47
-1.03211e-46
2.82318e-46
3.69183e-46
-1.70687e-45
-1.27127e-45
9.30162e-45
5.32302e-45
-4.79273e-44
-3.30365e-44
2.33521e-43
2.54385e-43
-1.02426e-42
-1.89972e-42
3.49602e-42
1.22154e-41
-4.04963e-42
-6.17004e-41
-5.98052e-41
1.97412e-40
5.68414e-40
5.86795e-41
-2.37517e-39
-4.71817e-39
5.93398e-40
2.08025e-38
4.39337e-38
2.00024e-38
-1.21925e-37
-3.87289e-37
-5.78261e-37
-2.04009e-37
1.42321e-36
4.84668e-36
1.00039e-35
1.59365e-35
2.0952e-35
2.32727e-35
2.18757e-35
1.70464e-35
1.02979e-35
3.68492e-36
-1.09666e-36
-3.33551e-36
-3.37302e-36
-2.18414e-36
-7.90351e-37
1.6405e-37
5.18519e-37
4.45709e-37
2.1539e-37
2.28725e-38
-6.32111e-38
-6.48315e-38
-3.28683e-38
-4.16943e-39
7.86144e-39
4.50499e-65
-1.8345e-65
2.11776e-64
-8.43844e-64
3.48177e-63
-1.31268e-62
4.46749e-62
-1.29137e-61
2.61998e-61
7.6765e-62
-4.61505e-60
3.23797e-59
-1.638e-58
6.90931e-58
-2.52312e-57
8.00143e-57
-2.15443e-56
4.59509e-56
-5.96277e-56
-5.70096e-56
6.6234e-55
-2.36862e-54
5.00618e-54
-3.43387e-54
-2.04411e-53
9.52239e-53
-1.92271e-52
1.67779e-53
1.16973e-51
-3.59265e-51
2.90846e-51
1.43447e-50
-5.45354e-50
4.50546e-50
2.24982e-49
-7.51406e-49
1.81418e-49
4.05851e-48
-8.10423e-48
-1.03547e-47
6.13805e-47
-2.32898e-47
-3.1573e-46
4.65217e-46
1.30299e-45
-3.57373e-45
-4.65881e-45
2.15937e-44
1.60459e-44
-1.17645e-43
-6.72871e-44
6.06069e-43
4.18306e-43
-2.95215e-42
-3.22231e-42
1.29399e-41
2.40537e-41
-4.40888e-41
-1.54533e-40
5.0371e-41
7.79428e-40
7.59922e-40
-2.48573e-39
-7.18893e-39
-8.01198e-40
2.99198e-38
5.97162e-38
-6.80435e-39
-2.61621e-37
-5.55261e-37
-2.58875e-37
1.52382e-36
4.87158e-36
7.31235e-36
2.6901e-36
-1.76348e-35
-6.05001e-35
-1.25143e-34
-1.99552e-34
-2.62485e-34
-2.91618e-34
-2.74106e-34
-2.13528e-34
-1.28878e-34
-4.59533e-35
1.39656e-35
4.19656e-35
4.2352e-35
2.73774e-35
9.86617e-36
-2.1037e-36
-6.53204e-36
-5.59912e-36
-2.69763e-36
-2.79046e-37
7.9881e-37
8.1559e-37
4.12117e-37
5.11993e-38
-9.92837e-38
-5.72952e-64
2.38456e-64
-2.72121e-63
1.09103e-62
-4.53074e-62
1.72536e-61
-5.96948e-61
1.78268e-60
-3.9802e-60
1.85514e-60
4.70266e-59
-3.66649e-58
1.92011e-57
-8.24254e-57
3.0431e-56
-9.72733e-56
2.63698e-55
-5.66733e-55
7.47855e-55
6.52378e-55
-8.04407e-54
2.9042e-53
-6.1857e-53
4.37643e-53
2.47952e-52
-1.16899e-51
2.37807e-51
-2.58093e-52
-1.43171e-50
4.42929e-50
-3.6431e-50
-1.75436e-49
6.72128e-49
-5.62486e-49
-2.75802e-48
9.26969e-48
-2.32717e-48
-4.99138e-47
1.00171e-46
1.26706e-46
-7.56732e-46
2.91525e-46
3.888e-45
-5.75054e-45
-1.60336e-44
4.40993e-44
5.73021e-44
-2.66299e-43
-1.974e-43
1.45045e-42
8.29058e-43
-7.47089e-42
-5.16304e-42
3.63796e-41
3.97896e-41
-1.5935e-40
-2.96893e-40
5.41944e-40
1.90568e-39
-6.10248e-40
-9.59756e-39
-9.4139e-39
3.05054e-38
8.86297e-38
1.06306e-38
-3.67342e-37
-7.36781e-37
7.4948e-38
3.20662e-36
6.84073e-36
3.2669e-36
-1.85542e-35
-5.97203e-35
-9.01377e-35
-3.4571e-35
2.12746e-34
7.35689e-34
1.52522e-33
2.43462e-33
3.20409e-33
3.5605e-33
3.34659e-33
2.60612e-33
1.57147e-33
5.58219e-34
-1.73402e-34
-5.14572e-34
-5.1821e-34
-3.3438e-34
-1.19979e-34
2.63051e-35
8.0201e-35
6.85451e-35
3.29197e-35
3.30955e-36
-9.84002e-36
-9.99947e-36
-5.03511e-36
-6.11635e-37
1.22221e-36
7.09739e-63
-3.01577e-63
3.40435e-62
-1.37294e-61
5.73582e-61
-2.20449e-60
7.7406e-60
-2.37696e-59
5.70947e-59
-5.7009e-59
-4.4234e-58
3.99935e-57
-2.18261e-56
9.55625e-56
-3.57056e-55
1.15109e-54
-3.14294e-54
6.80858e-54
-9.13895e-54
-7.20742e-54
9.50888e-53
-3.46778e-52
7.44548e-52
-5.43334e-52
-2.92718e-51
1.39763e-50
-2.86532e-50
3.73711e-51
1.70639e-49
-5.3192e-49
4.44646e-49
2.0892e-48
-8.06889e-48
6.84251e-48
3.29256e-47
-1.11394e-46
2.90769e-47
5.97896e-46
-1.20619e-45
-1.50972e-45
9.08767e-45
-3.55597e-45
-4.66352e-44
6.9248e-44
1.92169e-43
-5.30102e-43
-6.86455e-43
3.19905e-42
2.36524e-42
-1.74194e-41
-9.94952e-42
8.97067e-41
6.20748e-41
-4.36694e-40
-4.78616e-40
1.91145e-39
3.56971e-39
-6.4885e-39
-2.28923e-38
7.19543e-39
1.15115e-37
1.13614e-37
-3.64609e-37
-1.06439e-36
-1.37022e-37
4.39256e-36
8.85528e-36
-7.88861e-37
-3.82755e-35
-8.20928e-35
-4.01718e-35
2.1993e-34
7.12979e-34
1.08234e-33
4.32702e-34
-2.4968e-33
-8.70817e-33
-1.80974e-32
-2.89195e-32
-3.80806e-32
-4.23264e-32
-3.97824e-32
-3.09692e-32
-1.86554e-32
-6.60017e-33
2.09772e-33
6.14472e-33
6.17441e-33
3.97651e-33
1.42023e-33
-3.20511e-34
-9.59054e-34
-8.17152e-34
-3.91131e-34
-3.81175e-35
1.18071e-34
1.19395e-34
5.98991e-35
7.10148e-36
-1.46554e-35
-8.55679e-62
3.70853e-62
-4.14362e-61
1.68039e-60
-7.05988e-60
2.73654e-59
-9.73754e-59
3.06328e-58
-7.79563e-58
1.08565e-57
3.69227e-57
-4.18703e-56
2.40228e-55
-1.07564e-54
4.0721e-54
-1.32484e-53
3.64488e-53
-7.96154e-53
1.08733e-52
7.66597e-53
-1.09316e-51
4.02932e-51
-8.72348e-51
6.56605e-51
3.36036e-50
-1.62614e-49
3.36071e-49
-5.14123e-50
-1.97886e-48
6.2176e-48
-5.2841e-48
-2.42067e-47
9.42837e-47
-8.10454e-47
-3.82489e-46
1.30298e-45
-3.53618e-46
-6.97031e-45
1.41383e-44
1.75023e-44
-1.06226e-43
4.2237e-44
5.44438e-43
-8.11762e-43
-2.24163e-42
6.20268e-42
8.00331e-42
-3.7407e-41
-2.75811e-41
2.03631e-40
1.16212e-40
-1.04846e-39
-7.26431e-40
5.10232e-39
5.60392e-39
-2.2317e-38
-4.17788e-38
7.56079e-38
2.67675e-37
-8.25042e-38
-1.34389e-36
-1.33486e-36
4.24109e-36
1.24423e-35
1.71496e-36
-5.11176e-35
-1.036e-34
7.87377e-36
4.44592e-34
9.58908e-34
4.80977e-34
-2.5358e-33
-8.28324e-33
-1.26503e-32
-5.271e-33
2.84806e-32
1.00253e-31
2.08887e-31
3.34188e-31
4.4031e-31
4.89523e-31
4.60087e-31
3.58028e-31
2.1544e-31
7.58948e-32
-2.47072e-32
-7.14053e-32
-7.15821e-32
-4.60083e-32
-1.63515e-32
3.80253e-33
1.11611e-32
9.47901e-33
4.52105e-33
4.25821e-34
-1.37897e-33
-1.38727e-33
-6.93291e-34
-8.00548e-35
1.71041e-34
1.00324e-60
-4.43105e-61
4.90302e-60
-1.99887e-59
8.44242e-59
-3.29829e-58
1.1879e-57
-3.81677e-57
1.01795e-56
-1.72669e-56
-2.46035e-56
4.18646e-55
-2.55576e-54
1.17412e-53
-4.50973e-53
1.48176e-52
-4.1095e-52
9.05421e-52
-1.25853e-51
-7.82127e-52
1.22112e-50
-4.5521e-50
9.94105e-50
-7.71781e-50
-3.74794e-49
1.83971e-48
-3.83402e-48
6.75669e-49
2.23104e-47
-7.06829e-47
6.10941e-47
2.7266e-46
-1.07145e-45
9.3392e-46
4.32013e-45
-1.48233e-44
4.18271e-45
7.90217e-44
-1.61195e-43
-1.97254e-43
1.20763e-42
-4.88141e-43
-6.1813e-42
9.2561e-42
2.54286e-41
-7.05905e-41
-9.07378e-41
4.25422e-40
3.12755e-40
-2.31517e-39
-1.32002e-39
1.19181e-38
8.26785e-39
-5.79806e-38
-6.38171e-38
2.5341e-37
4.75578e-37
-8.56792e-37
-3.0441e-36
9.19148e-37
1.52583e-35
1.52558e-35
-4.79704e-35
-1.4146e-34
-2.08314e-35
5.78464e-34
1.17886e-33
-7.36234e-35
-5.02127e-33
-1.08936e-32
-5.60283e-33
2.84159e-32
9.35704e-32
1.43805e-31
6.24447e-32
-3.1546e-31
-1.12159e-30
-2.3434e-30
-3.75376e-30
-4.94885e-30
-5.50343e-30
-5.17232e-30
-4.02338e-30
-2.41827e-30
-8.47995e-31
2.83097e-31
8.06817e-31
8.06816e-31
5.17464e-31
1.82944e-31
-4.38924e-32
-1.26305e-31
-1.06905e-31
-5.07971e-32
-4.60789e-33
1.56633e-32
1.56731e-32
7.80065e-33
8.75222e-34
-1.94138e-33
-1.14292e-59
5.14015e-60
-5.6354e-59
2.30901e-58
-9.80094e-58
3.85715e-57
-1.40453e-56
4.59783e-56
-1.27489e-55
2.46988e-55
7.33256e-56
-3.96924e-54
2.62294e-53
-1.24131e-52
4.84497e-52
-1.60898e-51
4.50056e-51
-1.00056e-50
1.41593e-50
7.61661e-51
-1.32418e-49
4.99585e-49
-1.1009e-48
8.81605e-49
4.05744e-48
-2.02204e-47
4.2508e-47
-8.51071e-48
-2.44324e-46
7.80815e-46
-6.8665e-46
-2.98297e-45
1.18315e-44
-1.04615e-44
-4.74005e-44
1.63874e-43
-4.808e-44
-8.70428e-43
1.78609e-42
2.15925e-42
-1.33409e-41
5.48475e-42
6.81922e-41
-1.02574e-40
-2.80275e-40
7.80711e-40
9.99518e-40
-4.70165e-39
-3.44565e-39
2.55789e-38
1.45684e-38
-1.3165e-37
-9.14399e-38
6.40255e-37
7.06236e-37
-2.79613e-36
-5.2609e-36
9.43403e-36
3.36415e-35
-9.93982e-36
-1.68341e-34
-1.69457e-34
5.27157e-34
1.56289e-33
2.45426e-34
-6.36004e-33
-1.3036e-32
6.31078e-34
5.50933e-32
1.20259e-31
6.34466e-32
-3.0919e-31
-1.02686e-30
-1.58859e-30
-7.18866e-31
3.38938e-30
1.21823e-29
2.55286e-29
4.09472e-29
5.40196e-29
6.00899e-29
5.64727e-29
4.39098e-29
2.63601e-29
9.19793e-30
-3.153e-30
-8.85641e-30
-8.83329e-30
-5.65255e-30
-1.98721e-30
4.9253e-31
1.3887e-30
1.17119e-30
5.54284e-31
4.82277e-32
-1.72887e-31
-1.72022e-31
-8.52472e-32
-9.2683e-33
2.14119e-32
1.26397e-58
-5.78416e-59
6.28601e-58
-2.58794e-57
1.10366e-56
-4.37313e-56
1.60853e-55
-5.35382e-55
1.53399e-54
-3.27275e-54
1.41615e-54
3.52907e-53
-2.59042e-52
1.26932e-51
-5.04385e-51
1.69451e-50
-4.78305e-50
1.07343e-49
-1.54702e-49
-7.02974e-50
1.39253e-48
-5.32128e-48
1.1837e-47
-9.77816e-48
-4.25909e-47
2.15711e-46
-4.57599e-46
1.02949e-46
2.59646e-45
-8.37387e-45
7.49532e-45
3.16668e-44
-1.26839e-43
1.13815e-43
5.0474e-43
-1.75889e-42
5.36636e-43
9.307e-42
-1.9216e-41
-2.29356e-41
1.43084e-40
-5.9861e-41
-7.3032e-40
1.10374e-39
2.9988e-39
-8.38334e-39
-1.06874e-38
5.04488e-38
3.68476e-38
-2.74374e-37
-1.56076e-37
1.41187e-36
9.818e-37
-6.86407e-36
-7.58812e-36
2.99529e-35
5.65033e-35
-1.00841e-34
-3.6096e-34
1.04237e-34
1.80309e-33
1.82776e-33
-5.62312e-33
-1.67645e-32
-2.80256e-33
6.78768e-32
1.39963e-31
-4.73699e-33
-5.86697e-31
-1.28891e-30
-6.97818e-31
3.2635e-30
1.09375e-29
1.70381e-29
8.03479e-30
-3.52849e-29
-1.28336e-28
-2.69793e-28
-4.33357e-28
-5.72112e-28
-6.36591e-28
-5.98248e-28
-4.64952e-28
-2.7876e-28
-9.67529e-29
3.41036e-29
9.4357e-29
9.38507e-29
5.99121e-29
2.09363e-29
-5.36804e-30
-1.48206e-29
-1.24521e-29
-5.86814e-30
-4.87373e-31
1.85265e-30
1.8325e-30
9.0396e-31
9.49362e-32
-2.29265e-31
-1.35565e-57
6.30815e-58
-6.79824e-57
2.81165e-56
-1.20439e-55
4.80279e-55
-1.783e-54
6.02348e-54
-1.77497e-53
4.07574e-53
-3.8451e-53
-2.88656e-52
2.45447e-51
-1.25348e-50
5.08209e-50
-1.729e-49
4.92789e-49
-1.11691e-48
1.63986e-48
6.08197e-49
-1.4186e-47
5.49533e-47
-1.23449e-46
1.05203e-46
4.33015e-46
-2.23132e-45
4.7783e-45
-1.19728e-45
-2.6749e-44
8.71005e-44
-7.93867e-44
-3.25865e-43
1.31879e-42
-1.20143e-42
-5.21089e-42
1.83106e-41
-5.81034e-42
-9.6504e-41
2.00543e-40
2.36155e-40
-1.48841e-39
6.34015e-40
7.58555e-39
-1.15212e-38
-3.11157e-38
8.7318e-38
1.10816e-37
-5.25045e-37
-3.82103e-37
2.85461e-36
1.62153e-36
-1.46862e-35
-1.02241e-35
7.13749e-35
7.90795e-35
-3.11206e-34
-5.88628e-34
1.04536e-33
3.75654e-33
-1.05888e-33
-1.87312e-32
-1.91246e-32
5.81642e-32
1.74421e-31
3.09942e-32
-7.02476e-31
-1.45761e-30
2.72926e-32
6.05794e-30
1.33986e-29
7.44724e-30
-3.33791e-29
-1.1296e-28
-1.77248e-28
-8.71112e-29
3.55481e-28
1.30985e-27
2.76313e-27
4.44506e-27
5.87278e-27
6.53675e-27
6.14279e-27
4.77182e-27
2.85693e-27
9.85916e-28
-3.57888e-28
-9.74745e-28
-9.66675e-28
-6.1552e-28
-2.13705e-28
5.67707e-29
1.53379e-28
1.28353e-28
6.02135e-29
4.746e-30
-1.92553e-29
-1.89279e-29
-9.29165e-30
-9.39156e-31
2.38085e-30
1.40858e-56
-6.66077e-57
7.12093e-56
-2.95803e-55
1.27243e-54
-5.10453e-54
1.91128e-53
-6.54408e-53
1.97579e-52
-4.80809e-52
6.35145e-52
2.08971e-51
-2.22266e-50
1.19332e-49
-4.94952e-49
1.70725e-48
-4.91653e-48
1.12592e-47
-1.68469e-47
-4.84069e-48
1.3983e-46
-5.4963e-46
1.24745e-45
-1.09683e-45
-4.25878e-45
2.23557e-44
-4.83482e-44
1.3394e-44
2.6685e-43
-8.77752e-43
8.15004e-43
3.24689e-42
-1.32846e-41
1.2293e-41
5.21005e-41
-1.84692e-40
6.09671e-41
9.69338e-40
-2.02807e-39
-2.3544e-39
1.50011e-38
-6.51005e-39
-7.63302e-38
1.16541e-37
3.12766e-37
-8.81247e-37
-1.11304e-36
5.29459e-36
3.83809e-36
-2.87762e-35
-1.63194e-35
1.48015e-34
1.03153e-34
-7.191e-34
-7.98511e-34
3.13275e-33
5.94161e-33
-1.04985e-32
-3.78797e-32
1.04076e-32
1.88529e-31
1.93923e-31
-5.82793e-31
-1.75832e-30
-3.31676e-31
7.04255e-30
1.47088e-29
-4.43387e-32
-6.05851e-29
-1.34952e-28
-7.70415e-29
3.30449e-28
1.12995e-27
1.78665e-27
9.15195e-28
-3.46116e-27
-1.29374e-26
-2.73933e-26
-4.41403e-26
-5.83655e-26
-6.49865e-26
-6.10673e-26
-4.74135e-26
-2.83443e-26
-9.72086e-27
3.64015e-27
9.75306e-27
9.64222e-27
6.12277e-27
2.111e-27
-5.81991e-28
-1.53761e-27
-1.28128e-27
-5.98175e-28
-4.44283e-29
1.93902e-28
1.89361e-28
9.24767e-29
8.95671e-30
-2.39542e-29
-1.41625e-55
6.80197e-56
-7.21616e-55
3.0102e-54
-1.30006e-53
5.24472e-53
-1.97938e-52
6.86026e-52
-2.11576e-51
5.39704e-51
-8.69792e-51
-1.20922e-50
1.91371e-49
-1.09299e-48
4.65262e-48
-1.6293e-47
4.74441e-47
-1.09837e-46
1.67551e-46
3.41348e-47
-1.33188e-45
5.31786e-45
-1.21999e-44
1.10691e-44
4.04661e-44
-2.16695e-43
4.73492e-43
-1.4415e-43
-2.57479e-42
8.56021e-42
-8.10111e-42
-3.12878e-41
1.29503e-40
-1.21782e-40
-5.03901e-40
1.80294e-39
-6.19291e-40
-9.42104e-39
1.98519e-38
2.27007e-38
-1.46319e-37
6.47331e-38
7.43264e-37
-1.14109e-36
-3.04204e-36
8.60813e-36
1.08167e-35
-5.16736e-35
-3.72998e-35
2.80746e-34
1.58918e-34
-1.44375e-33
-1.00713e-33
7.0117e-33
7.80354e-33
-3.05199e-32
-5.80461e-32
1.02032e-31
3.69678e-31
-9.88531e-32
-1.83637e-30
-1.90344e-30
5.6501e-30
1.71552e-29
3.43107e-30
-6.83154e-29
-1.4366e-28
-1.91396e-30
5.86185e-28
1.31548e-27
7.71707e-28
-3.16255e-27
-1.09352e-26
-1.74302e-26
-9.30737e-27
3.25205e-26
1.23502e-25
2.6256e-25
4.2383e-25
5.60912e-25
6.24772e-25
5.87067e-25
4.55553e-25
2.71894e-25
9.26189e-26
-3.58457e-26
-9.44108e-26
-9.30285e-26
-5.88995e-26
-2.01544e-26
5.77713e-27
1.49143e-26
1.23722e-26
5.74617e-27
3.98653e-28
-1.88971e-27
-1.83278e-27
-8.90124e-28
-8.21823e-29
2.33236e-28
1.3762e-54
-6.70986e-55
7.06594e-54
-2.95946e-53
1.28302e-52
-5.20346e-52
1.97833e-51
-6.93313e-51
2.17875e-50
-5.77907e-50
1.06468e-49
3.28913e-50
-1.55524e-48
9.60892e-48
-4.21461e-47
1.50076e-46
-4.42253e-46
1.03561e-45
-1.61123e-45
-1.934e-46
1.22418e-44
-4.97093e-44
1.15333e-43
-1.07999e-43
-3.70932e-43
2.0295e-42
-4.48269e-42
1.49207e-42
2.39979e-41
-8.06901e-41
7.78716e-41
2.912e-40
-1.2202e-39
1.16672e-39
4.70832e-39
-1.70124e-38
6.08268e-39
8.84856e-38
-1.87861e-37
-2.11398e-37
1.37949e-36
-6.22612e-37
-6.99503e-36
1.0802e-35
2.8594e-35
-8.12847e-35
-1.0158e-34
4.87499e-34
3.5027e-34
-2.64763e-33
-1.49547e-33
1.36126e-32
9.50399e-33
-6.60871e-32
-7.37157e-32
2.87403e-31
5.48169e-31
-9.58412e-31
-3.48746e-30
9.06102e-31
1.72897e-29
1.80633e-29
-5.29352e-29
-1.61795e-28
-3.42734e-29
6.40414e-28
1.3564e-27
4.11382e-29
-5.48009e-27
-1.23951e-26
-7.4759e-27
2.92207e-26
1.02254e-25
1.6438e-25
9.15187e-26
-2.94378e-25
-1.13789e-24
-2.42983e-24
-3.92983e-24
-5.20584e-24
-5.80084e-24
-5.45048e-24
-4.22693e-24
-2.5184e-24
-8.51559e-25
3.41336e-25
8.83055e-25
8.67047e-25
5.47227e-25
1.85722e-25
-5.54621e-26
-1.39799e-25
-1.15416e-25
-5.3306e-26
-3.41628e-27
1.78016e-26
1.714e-26
8.27534e-27
7.23748e-28
-2.19503e-27
-1.29065e-53
6.38546e-54
-6.67645e-53
2.80724e-52
-1.22145e-51
4.97863e-51
-1.90591e-50
6.74764e-50
-2.15621e-49
5.9108e-49
-1.19988e-48
4.67166e-49
1.17983e-47
-8.08583e-47
3.67257e-46
-1.33221e-45
3.97665e-45
-9.42473e-45
1.49614e-44
5.41748e-46
-1.0841e-43
4.48303e-43
-1.05251e-42
1.01741e-42
3.27493e-42
-1.83406e-41
4.09711e-41
-1.48457e-41
-2.15748e-40
7.34168e-40
-7.22934e-40
-2.61396e-39
1.10972e-38
-1.07952e-38
-4.24422e-38
1.54962e-37
-5.76963e-38
-8.02059e-37
1.71638e-36
1.89864e-36
-1.25545e-35
5.78504e-36
6.35404e-35
-9.8732e-35
-2.59394e-34
7.41008e-34
9.20567e-34
-4.4399e-33
-3.17397e-33
2.41039e-32
1.35805e-32
-1.23901e-31
-8.65656e-32
6.01302e-31
6.7221e-31
-2.6126e-30
-4.99749e-30
8.68972e-30
3.17605e-29
-8.00333e-30
-1.57136e-28
-1.65513e-28
4.78624e-28
1.47309e-27
3.30197e-28
-5.79392e-27
-1.2364e-26
-5.94089e-28
4.9435e-26
1.12746e-25
6.99515e-26
-2.60272e-25
-9.22631e-25
-1.49659e-24
-8.68988e-25
2.56248e-24
1.01035e-23
2.16795e-23
3.51365e-23
4.65934e-23
5.19412e-23
4.88014e-23
3.78216e-23
2.24912e-23
7.54361e-24
-3.13899e-24
-7.9698e-24
-7.79569e-24
-4.90346e-24
-1.64934e-24
5.14292e-25
1.26461e-24
1.03872e-24
4.7687e-25
2.78272e-26
-1.61881e-25
-1.54669e-25
-7.4204e-26
-6.10004e-27
1.99407e-26
1.16647e-52
-5.85389e-53
6.07844e-52
-2.56542e-51
1.12012e-50
-4.58735e-50
1.76747e-49
-6.3164e-49
2.0489e-48
-5.77729e-48
1.26276e-47
-1.10838e-47
-8.19998e-47
6.49071e-46
-3.07235e-45
1.13781e-44
-3.4439e-44
8.26644e-44
-1.33955e-43
6.40131e-45
9.23427e-43
-3.89474e-42
9.25855e-42
-9.24102e-42
-2.78002e-41
1.59687e-40
-3.60992e-40
1.41874e-40
1.86806e-39
-6.43831e-39
6.47268e-39
2.25952e-38
-9.72736e-38
9.6332e-38
3.68534e-37
-1.36057e-36
5.27786e-37
7.00574e-36
-1.51183e-35
-1.64203e-35
1.10129e-34
-5.18553e-35
-5.5627e-34
8.70084e-34
2.26764e-33
-6.51216e-33
-8.03865e-33
3.89795e-32
2.77107e-32
-2.11531e-31
-1.18833e-31
1.08709e-30
7.59908e-31
-5.27382e-30
-5.90867e-30
2.2893e-29
4.39192e-29
-7.59393e-29
-2.78823e-28
6.80099e-29
1.37658e-27
1.46222e-27
-4.17035e-27
-1.2929e-26
-3.06407e-27
5.05147e-26
1.08649e-25
7.22909e-27
-4.29665e-25
-9.88576e-25
-6.31313e-25
2.23126e-24
8.02095e-24
1.31353e-23
7.95687e-24
-2.14045e-23
-8.63106e-23
-1.8619e-22
-3.02456e-22
-4.01528e-22
-4.47824e-22
-4.20729e-22
-3.25838e-22
-1.93362e-22
-6.42767e-23
2.78387e-23
6.93033e-23
6.75136e-23
4.23099e-23
1.40926e-23
-4.59982e-24
-1.10236e-23
-9.00522e-24
-4.10743e-24
-2.14049e-25
1.419e-24
1.34475e-24
6.40775e-25
4.90324e-26
-1.74607e-25
-1.01427e-51
5.16154e-52
-5.32354e-51
2.25503e-50
-9.87884e-50
4.06412e-49
-1.57538e-48
5.67896e-48
-1.86726e-47
5.39538e-47
-1.25021e-46
1.5487e-46
5.03305e-46
-4.94914e-45
2.46196e-44
-9.33246e-44
2.86773e-43
-6.97652e-43
1.15459e-42
-1.52423e-43
-7.55124e-42
3.25411e-41
-7.83792e-41
8.08005e-41
2.26451e-40
-1.33732e-39
3.06128e-39
-1.30089e-39
-1.55514e-38
5.4331e-38
-5.58032e-38
-1.87758e-37
8.20487e-37
-8.27762e-37
-3.07733e-36
1.14963e-35
-4.64913e-36
-5.88715e-35
1.28181e-34
1.36509e-34
-9.29695e-34
4.47737e-34
4.68591e-33
-7.38133e-33
-1.90725e-32
5.50845e-32
6.75265e-32
-3.29364e-31
-2.32707e-31
1.78661e-30
1.00026e-30
-9.17959e-30
-6.41861e-30
4.45169e-29
4.99824e-29
-1.9306e-28
-3.71475e-28
6.38627e-28
2.35583e-27
-5.5503e-28
-1.16057e-26
-1.24355e-26
3.49607e-26
1.09214e-25
2.7346e-26
-4.2374e-25
-9.1898e-25
-7.88883e-26
3.59226e-24
8.34238e-24
5.48706e-24
-1.83774e-23
-6.70757e-23
-1.10963e-22
-7.01523e-23
1.71154e-22
7.08062e-22
1.53649e-21
2.50223e-21
3.32597e-21
3.71134e-21
3.48657e-21
2.69812e-21
1.5975e-21
5.25791e-22
-2.37731e-22
-5.79692e-22
-5.62249e-22
-3.50949e-22
-1.1564e-22
3.96208e-23
9.24485e-23
7.50807e-23
3.40047e-23
1.54005e-24
-1.19708e-23
-1.12465e-23
-5.31968e-24
-3.74192e-25
1.47136e-24
8.46934e-51
-4.36942e-51
4.47698e-50
-1.90317e-49
8.36425e-49
-3.45591e-48
1.3473e-47
-4.89605e-47
1.62978e-46
-4.81117e-46
1.16899e-45
-1.77297e-45
-2.48539e-45
3.56472e-44
-1.88483e-43
7.33614e-43
-2.29172e-42
5.6552e-42
-9.56341e-42
2.07087e-42
5.91556e-41
-2.60992e-40
6.37421e-40
-6.78933e-40
-1.76611e-39
1.07526e-38
-2.49418e-38
1.14302e-38
1.24238e-37
-4.40402e-37
4.62464e-37
1.49696e-36
-6.64769e-36
6.83745e-36
2.46648e-35
-9.33197e-35
3.93706e-35
4.7509e-34
-1.04429e-33
-1.08878e-33
7.53948e-33
-3.71774e-33
-3.7914e-32
6.01771e-32
1.54056e-31
-4.47692e-31
-5.44671e-31
2.67382e-30
1.87622e-30
-1.44974e-29
-8.08421e-30
7.44713e-29
5.20715e-29
-3.61023e-28
-4.06176e-28
1.56417e-27
3.01866e-27
-5.15932e-27
-1.91238e-26
4.34174e-27
9.40004e-26
1.01629e-25
-2.81483e-25
-8.86381e-25
-2.34337e-25
3.41389e-24
7.46864e-24
7.91937e-25
-2.88383e-23
-6.76373e-23
-4.58508e-23
1.45135e-22
5.38601e-22
9.00665e-22
5.94557e-22
-1.30642e-21
-5.56667e-21
-1.21594e-20
-1.98573e-20
-2.64301e-20
-2.95092e-20
-2.77201e-20
-2.14332e-20
-1.26583e-20
-4.12035e-21
1.95148e-21
4.65581e-21
4.49433e-21
2.79312e-21
9.0941e-22
-3.28112e-22
-7.44588e-22
-6.00905e-22
-2.70068e-22
-1.02068e-23
9.70216e-23
9.03113e-23
4.23792e-23
2.69517e-24
-1.1911e-23
-6.77749e-50
3.54418e-50
-3.60799e-49
1.53909e-48
-6.78518e-48
2.8151e-47
-1.10343e-46
4.04014e-46
-1.3601e-45
4.09194e-45
-1.03415e-44
1.7968e-44
6.38444e-45
-2.40695e-43
1.37448e-42
-5.51419e-42
1.75394e-41
-4.39414e-41
7.59733e-41
-2.29022e-41
-4.42887e-40
2.00525e-39
-4.97004e-39
5.47171e-39
1.31544e-38
-8.28357e-38
1.94857e-37
-9.60908e-38
-9.50469e-37
3.42228e-36
-3.67717e-36
-1.14268e-35
5.16334e-35
-5.41894e-35
-1.89358e-34
7.26291e-34
-3.19938e-34
-3.67445e-33
8.15923e-33
8.31328e-33
-5.8621e-32
2.96324e-32
2.94063e-31
-4.70567e-31
-1.19266e-30
3.48929e-30
4.20995e-30
-2.08144e-29
-1.44933e-29
1.12802e-28
6.26055e-29
-5.79323e-28
-4.04912e-28
2.80747e-27
3.16464e-27
-1.21519e-26
-2.35213e-26
3.99637e-26
1.4886e-25
-3.24853e-26
-7.3002e-25
-7.96612e-25
2.1724e-24
6.8984e-24
1.92459e-24
-2.63643e-23
-5.82104e-23
-7.40323e-24
2.21855e-22
5.25849e-22
3.67668e-22
-1.09661e-21
-4.14443e-21
-7.01078e-21
-4.83506e-21
9.48696e-21
4.18431e-20
9.20776e-20
1.50836e-19
2.01064e-19
2.24627e-19
2.10992e-19
1.62985e-19
9.59903e-20
3.08583e-20
-1.53697e-20
-3.58326e-20
-3.4412e-20
-2.12844e-20
-6.83827e-21
2.60751e-21
5.74794e-21
4.60727e-21
2.05328e-21
6.05993e-23
-7.54001e-22
-6.94948e-22
-3.23296e-22
-1.81691e-23
9.24496e-23
5.18559e-49
-2.74841e-49
2.78001e-48
-1.18994e-47
5.26175e-47
-2.19175e-46
8.63541e-46
-3.1842e-45
1.08312e-44
-3.3143e-44
8.65961e-44
-1.66033e-43
5.29352e-44
1.50656e-42
-9.51319e-42
3.95277e-41
-1.28253e-40
3.26541e-40
-5.77587e-40
2.23441e-40
3.16023e-39
-1.47246e-38
3.7071e-38
-4.22057e-38
-9.32976e-38
6.10028e-37
-1.45652e-36
7.71512e-37
6.94674e-36
-2.54379e-35
2.79926e-35
8.33074e-35
-3.83609e-34
4.11194e-34
1.38922e-33
-5.40775e-33
2.48983e-33
2.71753e-32
-6.10066e-32
-6.06163e-32
4.36036e-31
-2.26259e-31
-2.18148e-30
3.52195e-30
8.82952e-30
-2.60236e-29
-3.11105e-29
1.55036e-28
1.07015e-28
-8.39789e-28
-4.63471e-28
4.31201e-27
3.01118e-27
-2.08895e-26
-2.35878e-26
9.03307e-26
1.75357e-25
-2.96167e-25
-1.1087e-24
2.31934e-25
5.42436e-24
5.97597e-24
-1.6036e-23
-5.1372e-23
-1.51177e-23
1.94738e-22
4.34161e-22
6.48462e-23
-1.63194e-21
-3.91184e-21
-2.82333e-21
7.90764e-21
3.04924e-20
5.22224e-20
3.76515e-20
-6.52747e-20
-2.99919e-19
-6.65534e-19
-1.09402e-18
-1.46076e-18
-1.63308e-18
-1.53381e-18
-1.18359e-18
-6.94912e-19
-2.20257e-19
1.159e-19
2.63677e-19
2.51804e-19
1.54929e-19
4.90365e-20
-1.98441e-20
-4.24354e-20
-3.37639e-20
-1.49081e-20
-3.02773e-22
5.60659e-21
5.11298e-21
2.3562e-21
1.13198e-22
-6.8652e-22
-3.78339e-48
2.03239e-48
-2.04265e-47
8.77268e-47
-3.8906e-46
1.62686e-45
-6.44145e-45
2.39108e-44
-8.21185e-44
2.55143e-43
-6.85957e-43
1.41782e-42
-1.11998e-42
-8.58407e-42
6.22248e-41
-2.69415e-40
8.9364e-40
-2.3149e-39
4.19182e-39
-1.98222e-39
-2.14238e-38
1.03066e-37
-2.63852e-37
3.10827e-37
6.27948e-37
-4.2833e-36
1.03907e-35
-5.90369e-36
-4.83737e-35
1.80408e-34
-2.0353e-34
-5.78484e-34
2.71929e-33
-2.9803e-33
-9.71367e-33
3.84251e-32
-1.85138e-32
-1.91696e-31
4.35459e-31
4.20887e-31
-3.09509e-30
1.65125e-30
1.54398e-29
-2.51696e-29
-6.23501e-29
1.85275e-28
2.19227e-28
-1.10224e-27
-7.53288e-28
5.96742e-27
3.27123e-27
-3.06342e-26
-2.13605e-26
1.48361e-25
1.6777e-25
-6.40928e-25
-1.24777e-24
2.09489e-24
7.88174e-24
-1.57601e-24
-3.84693e-23
-4.28004e-23
1.12943e-22
3.65177e-22
1.13309e-22
-1.37242e-21
-3.09133e-21
-5.33756e-22
1.14495e-20
2.77777e-20
2.07133e-20
-5.42643e-20
-2.13972e-19
-3.71359e-19
-2.80118e-19
4.23353e-19
2.04365e-18
4.57858e-18
7.55582e-18
1.01077e-17
1.13087e-17
1.06203e-17
8.18573e-18
4.78923e-18
1.49355e-18
-8.34815e-19
-1.85048e-18
-1.75629e-18
-1.07433e-18
-3.3432e-19
1.44284e-19
2.98871e-19
2.35891e-19
1.03088e-19
1.03134e-21
-3.97919e-20
-3.58768e-20
-1.63619e-20
-6.37978e-22
4.86555e-21
2.62411e-47
-1.42893e-47
1.42692e-46
-6.14882e-46
2.73483e-45
-1.14787e-44
4.56655e-44
-1.70586e-43
5.91125e-43
-1.86227e-42
5.13284e-42
-1.12592e-41
1.28165e-41
4.30375e-41
-3.82581e-40
1.73991e-39
-5.91504e-39
1.56094e-38
-2.89589e-38
1.62084e-38
1.37469e-37
-6.85582e-37
1.78684e-36
-2.17955e-36
-3.99445e-36
2.85895e-35
-7.05462e-35
4.29496e-35
3.1994e-34
-1.21728e-33
1.40957e-33
3.81383e-33
-1.83394e-32
2.05769e-32
6.45341e-32
-2.59822e-31
1.31198e-31
1.286e-30
-2.9591e-30
-2.77381e-30
2.09064e-29
-1.14887e-29
-1.03959e-28
1.71288e-28
4.18744e-28
-1.25571e-27
-1.46871e-27
7.45919e-27
5.03939e-27
-4.03611e-26
-2.19453e-26
2.07158e-25
1.44111e-25
-1.00298e-24
-1.13545e-24
4.32887e-24
8.4503e-24
-1.41044e-23
-5.33336e-23
1.01629e-23
2.59678e-22
2.91853e-22
-7.56865e-22
-2.47106e-21
-8.08171e-22
9.20257e-21
2.09554e-20
4.13221e-21
-7.63985e-20
-1.87766e-19
-1.44799e-19
3.53208e-19
1.42798e-18
2.51416e-18
1.9859e-18
-2.5709e-18
-1.3191e-17
-2.98822e-17
-4.95332e-17
-6.6403e-17
-7.43583e-17
-6.98242e-17
-5.37465e-17
-3.13208e-17
-9.5855e-18
5.72838e-18
1.23499e-17
1.16418e-17
7.07513e-18
2.15943e-18
-9.99641e-19
-2.0024e-18
-1.56656e-18
-6.7678e-19
1.10297e-21
2.6882e-19
2.39399e-19
1.07932e-19
3.11665e-21
-3.28201e-20
-1.72397e-46
9.51921e-47
-9.44336e-46
4.08303e-45
-1.82122e-44
7.67227e-44
-3.06632e-43
1.15239e-42
-4.02703e-42
1.28489e-41
-3.61999e-41
8.33496e-41
-1.17272e-40
-1.75193e-40
2.19593e-39
-1.06029e-38
3.70592e-38
-9.97756e-38
1.89814e-37
-1.22916e-37
-8.31208e-37
4.31871e-36
-1.14754e-35
1.45055e-35
2.38948e-35
-1.80771e-34
4.54334e-34
-2.96212e-34
-2.00252e-33
7.78839e-33
-9.26966e-33
-2.37831e-32
1.17285e-31
-1.34916e-31
-4.05914e-31
1.66642e-30
-8.8346e-31
-8.17687e-30
1.90825e-29
1.7284e-29
-1.33945e-28
7.59841e-29
6.63712e-28
-1.10657e-27
-2.66564e-27
8.07623e-27
9.32238e-27
-4.7896e-26
-3.19252e-26
2.59009e-25
1.39429e-25
-1.32917e-24
-9.21515e-25
6.43386e-24
7.28804e-24
-2.77437e-23
-5.42924e-23
9.01081e-23
3.42425e-22
-6.1993e-23
-1.66317e-21
-1.88874e-21
4.81059e-21
1.58669e-20
5.46833e-21
-5.85235e-20
-1.34815e-19