/*--------------------------------*- C++ -*----------------------------------*\
  =========                 |
  \\      /  F ield         | OpenFOAM: The Open Source CFD Toolbox
   \\    /   O peration     | Website:  https://openfoam.org
    \\  /    A nd           | Version:  13
     \\/     M anipulation  |
\*---------------------------------------------------------------------------*/
FoamFile
{
    format      ascii;
    class       volScalarField;
    location    "4";
    object      T;
}
// * * * * * * * * * * * * * * * * * * * * * * * * * * * * * * * * * * * * * //

dimensions      [0 0 0 1 0 0 0];

internalField   nonuniform List<scalar> 
10000
(
1.15131e-73
-2.02786e-74
3.97013e-73
-1.23175e-72
3.56714e-72
-4.47251e-72
-3.56992e-71
4.01758e-70
-2.71477e-69
1.50002e-68
-7.28756e-68
3.19456e-67
-1.27477e-66
4.62929e-66
-1.51784e-65
4.41299e-65
-1.09554e-64
2.11341e-64
-2.09853e-64
-5.24764e-64
3.69241e-63
-1.1782e-62
2.24509e-62
-8.52842e-63
-1.15455e-61
4.6628e-61
-8.50674e-61
-1.84808e-61
5.94663e-60
-1.66286e-59
1.05393e-59
7.3612e-59
-2.53622e-58
1.72987e-58
1.12133e-57
-3.4502e-57
3.83844e-58
1.94126e-56
-3.62499e-56
-5.27342e-56
2.84391e-55
-8.61032e-56
-1.48524e-54
2.08189e-54
6.18667e-54
-1.63695e-53
-2.22334e-53
9.97299e-53
7.62716e-53
-5.45302e-52
-3.13081e-52
2.81647e-51
1.90247e-51
-1.37787e-50
-1.45904e-50
6.09837e-50
1.09691e-49
-2.13007e-49
-7.13974e-49
2.90098e-49
3.67632e-48
3.29e-48
-1.22583e-47
-3.33489e-47
1.6874e-49
1.46679e-46
2.74186e-46
-7.74176e-47
-1.31032e-45
-2.60167e-45
-8.17097e-46
8.25679e-45
2.4339e-44
3.40122e-44
5.35643e-45
-1.05516e-43
-3.32488e-43
-6.70175e-43
-1.05589e-42
-1.3804e-42
-1.52963e-42
-1.43824e-42
-1.12476e-42
-6.86458e-43
-2.5549e-43
5.85843e-44
2.0899e-43
2.16499e-43
1.43021e-43
5.42033e-44
-7.88289e-45
-3.19872e-44
-2.84435e-44
-1.42385e-44
-1.96007e-45
3.74809e-45
4.06755e-45
2.14506e-45
3.37333e-46
-4.69932e-46
-1.67728e-72
3.44845e-73
-6.05196e-72
1.96647e-71
-6.1888e-71
1.19287e-70
2.40928e-70
-4.48932e-69
3.32403e-68
-1.90916e-67
9.47696e-67
-4.21202e-66
1.6972e-65
-6.20893e-65
2.04798e-64
-5.9858e-64
1.49393e-63
-2.90264e-63
2.94813e-63
6.93862e-63
-5.00519e-62
1.60908e-61
-3.08927e-61
1.24534e-61
1.56381e-60
-6.37501e-60
1.17171e-59
2.27219e-60
-8.10943e-59
2.28264e-58
-1.47612e-58
-1.00323e-57
3.48026e-57
-2.41016e-57
-1.53124e-56
4.73879e-56
-5.72298e-57
-2.65848e-55
4.98841e-55
7.19104e-55
-3.90341e-54
1.20323e-54
2.03636e-53
-2.86463e-53
-8.47691e-53
2.24857e-52
3.04543e-52
-1.3691e-51
-1.04511e-51
7.48396e-51
4.29679e-51
-3.86468e-50
-2.61523e-50
1.89005e-49
2.00615e-49
-8.35917e-49
-1.50733e-48
2.91446e-48
9.80122e-48
-3.9234e-48
-5.03899e-47
-4.53892e-47
1.67487e-46
4.57657e-46
1.61008e-48
-2.00496e-45
-3.76555e-45
1.01631e-45
1.78846e-44
3.56768e-44
1.15973e-44
-1.12119e-43
-3.32263e-43
-4.66653e-43
-8.06054e-44
1.42436e-42
4.51105e-42
9.10742e-42
1.43601e-41
1.87809e-41
2.08148e-41
1.95708e-41
1.53013e-41
9.33192e-42
3.46389e-42
-8.10145e-43
-2.8537e-42
-2.95104e-42
-1.94669e-42
-7.35414e-43
1.10052e-43
4.37281e-43
3.87866e-43
1.93673e-43
2.62329e-44
-5.13932e-44
-5.55356e-44
-2.92036e-44
-4.52939e-45
6.43959e-45
3.06622e-71
-6.94521e-72
1.14113e-70
-3.81802e-70
1.26004e-69
-2.88275e-69
-7.83969e-70
6.43841e-68
-5.25842e-67
3.13207e-66
-1.58468e-65
7.12696e-65
-2.89529e-64
1.06567e-63
-3.53224e-63
1.03681e-62
-2.59873e-62
5.07791e-62
-5.24829e-62
-1.17684e-61
8.66505e-61
-2.80241e-60
5.41238e-60
-2.28061e-60
-2.70559e-59
1.11125e-58
-2.05446e-58
-3.60821e-59
1.41069e-57
-3.99164e-57
2.62181e-57
1.74433e-56
-6.08418e-56
4.26372e-56
2.66658e-55
-8.29036e-55
1.06348e-55
4.64012e-54
-8.74024e-54
-1.25088e-53
6.82525e-53
-2.13352e-53
-3.5576e-52
5.01878e-52
1.48019e-51
-3.93415e-51
-5.31641e-51
2.39427e-50
1.82494e-50
-1.30852e-49
-7.51238e-50
6.75609e-49
4.57827e-49
-3.30325e-48
-3.51269e-48
1.4601e-47
2.63805e-47
-5.08344e-47
-1.714e-46
6.7799e-47
8.80132e-46
7.9685e-46
-2.91804e-45
-8.00133e-45
-8.22911e-47
3.49433e-44
6.58728e-44
-1.71321e-44
-3.11337e-43
-6.23379e-43
-2.08061e-43
1.94376e-42
5.78489e-42
8.15714e-42
1.50729e-42
-2.45754e-41
-7.81525e-41
-1.5799e-40
-2.49264e-40
-3.26105e-40
-3.6147e-40
-3.39859e-40
-2.65664e-40
-1.61929e-40
-5.99761e-41
1.42492e-41
4.96941e-41
5.13169e-41
3.38132e-41
1.2741e-41
-1.94993e-42
-7.62176e-42
-6.74702e-42
-3.3622e-42
-4.49444e-43
8.97925e-43
9.6701e-43
5.07348e-43
7.78087e-44
-1.12455e-43
-5.47045e-70
1.34783e-70
-2.09487e-69
7.19007e-69
-2.46622e-68
6.3335e-68
-4.73968e-68
-8.48847e-67
7.99439e-66
-4.98092e-65
2.57668e-64
-1.17439e-63
4.81403e-63
-1.78365e-62
5.94316e-62
-1.75242e-61
4.41218e-61
-8.67258e-61
9.12459e-61
1.94429e-60
-1.46375e-59
4.76402e-59
-9.25797e-59
4.07603e-59
4.56739e-58
-1.89081e-57
3.51707e-57
5.51151e-58
-2.39517e-56
6.81445e-56
-4.54789e-56
-2.96011e-55
1.03838e-54
-7.36616e-55
-4.53266e-54
1.41597e-53
-1.92702e-54
-7.90603e-53
1.49515e-52
2.12372e-52
-1.16509e-51
3.69472e-52
6.06749e-51
-8.58481e-51
-2.52313e-50
6.72008e-50
9.05986e-50
-4.08774e-49
-3.11082e-49
2.23355e-48
1.28223e-48
-1.15303e-47
-7.82479e-48
5.63599e-47
6.00485e-47
-2.48974e-46
-4.50753e-46
8.65527e-46
2.92624e-45
-1.14312e-45
-1.50073e-44
-1.36594e-44
4.96254e-44
1.36568e-43
2.36572e-45
-5.94469e-43
-1.12502e-42
2.81113e-43
5.29011e-42
1.06335e-41
3.64545e-42
-3.28844e-41
-9.83091e-41
-1.39202e-40
-2.74695e-41
4.13646e-40
1.32121e-39
2.67462e-39
4.22257e-39
5.52611e-39
6.12626e-39
5.75991e-39
4.50148e-39
2.74211e-39
1.01331e-39
-2.44725e-40
-8.44673e-40
-8.70971e-40
-5.732e-40
-2.15396e-40
3.37416e-41
1.29675e-40
1.14553e-40
5.69633e-41
7.50785e-42
-1.53155e-41
-1.64353e-41
-8.6022e-42
-1.30354e-42
1.91709e-42
9.52054e-69
-2.525e-69
3.74307e-68
-1.31371e-67
4.65181e-67
-1.2985e-66
1.83675e-66
9.83075e-66
-1.16267e-64
7.66815e-64
-4.07144e-63
1.8838e-62
-7.79899e-62
2.91042e-61
-9.75221e-61
2.88944e-60
-7.30944e-60
1.44562e-59
-1.54872e-59
-3.12775e-59
2.41206e-58
-7.90275e-58
1.54564e-57
-7.10637e-58
-7.52106e-57
3.13952e-56
-5.8768e-56
-8.06403e-57
3.96807e-55
-1.1354e-54
7.70182e-55
4.90133e-54
-1.72958e-53
1.24239e-53
7.51815e-53
-2.36037e-52
3.40339e-53
1.3146e-51
-2.49643e-51
-3.51814e-51
1.94105e-50
-6.24674e-51
-1.00991e-49
1.43329e-49
4.19732e-49
-1.12034e-48
-1.50671e-48
6.81139e-48
5.17497e-48
-3.72092e-47
-2.13592e-47
1.92054e-46
1.30525e-46
-9.38494e-46
-1.0019e-45
4.14333e-45
7.51705e-45
-1.43815e-44
-4.87588e-44
1.87993e-44
2.49734e-43
2.28549e-43
-8.23556e-43
-2.27498e-42
-5.59938e-44
9.86911e-42
1.87528e-41
-4.48772e-42
-8.77118e-41
-1.77022e-40
-6.23539e-41
5.4275e-40
1.63025e-39
2.31842e-39
4.87709e-40
-6.79019e-39
-2.17894e-38
-4.41744e-38
-6.97887e-38
-9.13651e-38
-1.01303e-37
-9.52432e-38
-7.44177e-38
-4.53031e-38
-1.67006e-38
4.10288e-39
1.401e-38
1.44238e-38
9.48055e-39
3.55235e-39
-5.70014e-40
-2.153e-39
-1.89777e-39
-9.41591e-40
-1.22245e-40
2.54946e-40
2.72576e-40
1.42307e-40
2.12912e-41
-3.18953e-41
-1.61544e-67
4.57307e-68
-6.50775e-67
2.32951e-66
-8.47216e-66
2.51914e-65
-4.74516e-65
-8.72687e-65
1.60487e-63
-1.14014e-62
6.24399e-62
-2.93887e-61
1.23015e-60
-4.62664e-60
1.55968e-59
-4.64479e-59
1.18086e-58
-2.35046e-58
2.56478e-58
4.89513e-58
-3.87497e-57
1.27848e-56
-2.5172e-56
1.20797e-56
1.20734e-55
-5.08404e-55
9.57926e-55
1.12206e-55
-6.41071e-54
1.84525e-53
-1.27265e-53
-7.91392e-53
2.81003e-52
-2.04454e-52
-1.21612e-51
3.83801e-51
-5.8562e-52
-2.13198e-50
4.06609e-50
5.68342e-50
-3.15432e-49
1.03056e-49
1.63958e-48
-2.33435e-48
-6.81034e-48
1.82191e-47
2.44397e-47
-1.10709e-46
-8.39653e-47
6.04639e-46
3.47042e-46
-3.1203e-45
-2.12383e-45
1.52433e-44
1.63062e-44
-6.72543e-44
-1.22282e-43
2.33065e-43
7.92483e-43
-3.0138e-43
-4.0535e-42
-3.73061e-42
1.33293e-41
3.69654e-41
1.18912e-42
-1.59793e-40
-3.0491e-40
6.96324e-41
1.41826e-39
2.8745e-39
1.04061e-39
-8.73395e-39
-2.63647e-38
-3.76642e-38
-8.4326e-39
1.08639e-37
3.50347e-37
7.11373e-37
1.12467e-36
1.47294e-36
1.63341e-36
1.53567e-36
1.1996e-36
7.29787e-37
2.68341e-37
-6.71084e-38
-2.2662e-37
-2.32937e-37
-1.52902e-37
-5.71182e-38
9.39592e-39
3.48628e-38
3.06596e-38
1.51763e-38
1.93875e-39
-4.13948e-39
-4.40868e-39
-2.29562e-39
-3.38816e-40
5.17584e-40
2.6708e-66
-8.01426e-67
1.10052e-65
-4.00913e-65
1.49165e-64
-4.66103e-64
1.0403e-63
1.9369e-64
-2.07555e-62
1.63221e-61
-9.28003e-61
4.45451e-60
-1.88754e-59
7.15991e-59
-2.42939e-58
7.27436e-58
-1.85912e-57
3.7253e-57
-4.14159e-57
-7.44608e-57
6.06467e-56
-2.01572e-55
3.99636e-55
-2.00078e-55
-1.88807e-54
8.02409e-54
-1.5222e-53
-1.46783e-54
1.00931e-52
-2.92327e-52
2.05057e-52
1.24523e-51
-4.45025e-51
3.28077e-51
1.91717e-50
-6.0834e-50
9.81236e-51
3.37009e-49
-6.45621e-49
-8.94732e-49
4.99668e-48
-1.6579e-48
-2.59459e-47
3.7063e-47
1.07707e-46
-2.88818e-46
-3.86395e-46
1.75405e-45
1.32789e-45
-9.57745e-45
-5.49632e-45
4.94167e-44
3.36872e-44
-2.41339e-43
-2.58709e-43
1.0641e-42
1.9391e-42
-3.68142e-42
-1.25556e-41
4.70655e-42
6.41315e-41
5.93677e-41
-2.10263e-40
-5.85493e-40
-2.34223e-41
2.52165e-39
4.83277e-39
-1.04887e-39
-2.23498e-38
-4.54982e-38
-1.69333e-38
1.36939e-37
4.15539e-37
5.96446e-37
1.41922e-37
-1.69288e-36
-5.48824e-36
-1.11621e-35
-1.76607e-35
-2.31385e-35
-2.56637e-35
-2.41275e-35
-1.88427e-35
-1.1455e-35
-4.20052e-36
1.0702e-36
3.57259e-36
3.66593e-36
2.40297e-36
8.9478e-37
-1.51025e-37
-5.50207e-37
-4.82712e-37
-2.3835e-37
-2.99255e-38
6.55148e-38
6.94946e-38
3.60858e-38
5.24912e-39
-8.18695e-39
-4.29968e-65
1.35971e-65
-1.80939e-64
6.69589e-64
-2.54071e-63
8.26362e-63
-2.0665e-62
1.60112e-62
2.45662e-61
-2.24061e-60
1.33426e-59
-6.55226e-59
2.81481e-58
-1.07776e-57
3.68267e-57
-1.10913e-56
2.85037e-56
-5.75148e-56
6.51673e-56
1.09964e-55
-9.2403e-55
3.09516e-54
-6.18083e-54
3.22703e-54
2.87422e-53
-1.23344e-52
2.35648e-52
1.76894e-53
-1.5475e-51
4.51116e-51
-3.21961e-51
-1.90799e-50
6.86527e-50
-5.12987e-50
-2.94346e-49
9.39299e-49
-1.60007e-49
-5.18882e-48
9.98675e-48
1.37169e-47
-7.71016e-47
2.59911e-47
3.99941e-46
-5.73278e-46
-1.65918e-45
4.46011e-45
5.95024e-45
-2.70716e-44
-2.04548e-44
1.47779e-43
8.47918e-44
-7.62356e-43
-5.20511e-43
3.72201e-42
3.99851e-42
-1.63998e-41
-2.99545e-41
5.66392e-41
1.93776e-40
-7.15459e-41
-9.88334e-40
-9.20439e-40
3.23036e-39
9.03353e-39
4.34845e-40
-3.87573e-38
-7.46177e-38
1.53173e-38
3.43008e-37
7.01496e-37
2.68498e-37
-2.09041e-36
-6.37847e-36
-9.20071e-36
-2.32379e-36
2.56726e-35
8.37011e-35
1.7053e-34
2.70033e-34
3.53936e-34
3.92631e-34
3.69121e-34
2.88193e-34
1.75068e-34
6.40123e-35
-1.66288e-35
-5.48514e-35
-5.61838e-35
-3.67734e-35
-1.36465e-35
2.36549e-36
8.45732e-36
7.40117e-36
3.64498e-36
4.49173e-37
-1.01002e-36
-1.06687e-36
-5.52366e-37
-7.91064e-38
1.26139e-37
6.73555e-64
-2.23379e-64
2.89071e-63
-1.085e-62
4.18803e-62
-1.40793e-61
3.82185e-61
-5.36277e-61
-2.52818e-60
2.93249e-59
-1.85189e-58
9.34093e-58
-4.07549e-57
1.57664e-56
-5.42845e-56
1.64511e-55
-4.2526e-55
8.64354e-55
-9.98449e-55
-1.57474e-54
1.36951e-53
-4.62519e-53
9.30574e-53
-5.06491e-53
-4.25594e-52
1.84526e-51
-3.55133e-51
-1.8828e-52
2.30884e-50
-6.77635e-50
4.92245e-50
2.84477e-49
-1.0309e-48
7.81047e-49
4.39788e-48
-1.41176e-47
2.53771e-48
7.77577e-47
-1.50384e-46
-2.0463e-46
1.15807e-45
-3.96791e-46
-6.00057e-45
8.63224e-45
2.48771e-44
-6.70461e-44
-8.91836e-44
4.06709e-43
3.06674e-43
-2.21957e-42
-1.27324e-42
1.14481e-41
7.82883e-42
-5.58746e-41
-6.01586e-41
2.46018e-40
4.50436e-40
-8.48132e-40
-2.9111e-39
1.05784e-39
1.48255e-38
1.38931e-38
-4.83009e-38
-1.35671e-37
-7.67666e-39
5.79755e-37
1.12149e-36
-2.16532e-37
-5.12299e-36
-1.05278e-35
-4.14546e-36
3.10451e-35
9.52828e-35
1.38154e-34
3.69956e-35
-3.78588e-34
-1.24181e-33
-2.53473e-33
-4.01719e-33
-5.2677e-33
-5.84469e-33
-5.49461e-33
-4.28874e-33
-2.60319e-33
-9.48918e-34
2.51565e-34
8.19574e-34
8.37903e-34
5.47568e-34
2.02468e-34
-3.60784e-35
-1.2652e-34
-1.10428e-34
-5.42346e-35
-6.54998e-36
1.51565e-35
1.59392e-35
8.22705e-36
1.15867e-36
-1.89167e-36
-1.02596e-62
3.55343e-63
-4.48492e-62
1.70512e-61
-6.68147e-61
2.30939e-60
-6.67098e-60
1.23161e-59
1.933e-59
-3.62791e-58
2.47473e-57
-1.28872e-56
5.72285e-56
-2.23937e-55
7.77425e-55
-2.37176e-54
6.16912e-54
-1.26346e-53
1.48842e-53
2.18381e-53
-1.97281e-52
6.72087e-52
-1.36283e-51
7.73017e-52
6.12466e-51
-2.68455e-50
5.20622e-50
1.57439e-51
-3.34942e-49
9.9005e-49
-7.32288e-49
-4.12397e-48
1.50564e-47
-1.15707e-47
-6.38961e-47
2.06387e-46
-3.91198e-47
-1.13325e-45
2.20281e-45
2.96818e-45
-1.69186e-44
5.89446e-45
8.75635e-44
-1.2644e-43
-3.62765e-43
9.80335e-43
1.3e-42
-5.94313e-42
-4.47164e-42
3.24252e-41
1.85951e-41
-1.6721e-40
-1.14533e-40
8.15833e-40
8.80392e-40
-3.58952e-39
-6.58839e-39
1.23514e-38
4.25379e-38
-1.52001e-38
-2.16297e-37
-2.04003e-37
7.02317e-37
1.98186e-36
1.29538e-37
-8.43368e-36
-1.63952e-35
2.95777e-36
7.44031e-35
1.53673e-34
6.22747e-35
-4.48184e-34
-1.38409e-33
-2.01773e-33
-5.72316e-34
5.42421e-33
1.79082e-32
3.66256e-32
5.80997e-32
7.62213e-32
8.45868e-32
7.95182e-32
6.20484e-32
3.76304e-32
1.36722e-32
-3.70258e-33
-1.19081e-32
-1.21503e-32
-7.92707e-33
-2.91986e-33
5.35427e-34
1.84065e-33
1.60206e-33
7.84532e-34
9.27011e-35
-2.21214e-34
-2.31566e-34
-1.19135e-34
-1.64788e-35
2.75913e-35
1.51833e-61
-5.47225e-62
6.75296e-61
-2.59759e-60
1.03154e-59
-3.65074e-59
1.10734e-58
-2.40894e-58
-1.49995e-59
4.18356e-57
-3.17339e-56
1.71774e-55
-7.78428e-55
3.08502e-54
-1.08071e-53
3.3207e-53
-8.69438e-53
1.79485e-52
-2.15713e-52
-2.92815e-52
2.7597e-51
-9.4887e-51
1.93984e-50
-1.14636e-50
-8.55837e-50
3.79487e-49
-7.41827e-49
-4.96937e-51
4.72055e-48
-1.40577e-47
1.05914e-47
5.80777e-47
-2.13706e-46
1.6665e-46
9.01956e-46
-2.93234e-45
5.85718e-46
1.60495e-44
-3.13616e-44
-4.1826e-44
2.40209e-43
-8.51386e-44
-1.24173e-42
1.80009e-42
5.14057e-42
-1.39314e-41
-1.84141e-41
8.44021e-41
6.33587e-41
-4.6036e-40
-2.63915e-40
2.3735e-39
1.62845e-39
-1.15766e-38
-1.25221e-38
5.08965e-38
9.3658e-38
-1.7479e-37
-6.04089e-37
2.12067e-37
3.06672e-36
2.91171e-36
-9.92256e-36
-2.8136e-35
-2.09595e-36
1.1921e-34
2.32946e-34
-3.89564e-35
-1.04989e-33
-2.17996e-33
-9.09517e-34
6.28412e-33
1.95344e-32
2.86394e-32
8.59708e-33
-7.54354e-32
-2.50804e-31
-5.14026e-31
-8.16204e-31
-1.07131e-30
-1.18914e-30
-1.11786e-30
-8.71995e-31
-5.2836e-31
-1.91298e-31
5.29757e-32
1.68109e-31
1.71168e-31
1.11478e-31
4.08939e-32
-7.72562e-33
-2.60196e-32
-2.25805e-32
-1.10236e-32
-1.27197e-33
3.13772e-33
3.26867e-33
1.67589e-33
2.27335e-34
-3.91088e-34
-2.1813e-60
8.15528e-61
-9.86063e-60
3.83376e-59
-1.5407e-58
5.56509e-58
-1.75589e-57
4.2663e-57
-3.50837e-57
-4.38199e-56
3.88747e-55
-2.20764e-54
1.02427e-53
-4.11764e-53
1.45678e-52
-4.51092e-52
1.18935e-51
-2.4758e-51
3.03673e-51
3.78945e-51
-3.74527e-50
1.30042e-49
-2.68128e-49
1.65045e-49
1.16013e-48
-5.20771e-48
1.02649e-47
-1.81196e-49
-6.45758e-47
1.93815e-46
-1.48809e-46
-7.93848e-46
2.94525e-45
-2.33155e-45
-1.23591e-44
4.04553e-44
-8.51099e-45
-2.20678e-43
4.33598e-43
5.72066e-43
-3.31156e-42
1.19465e-42
1.70973e-41
-2.48872e-41
-7.07251e-41
1.92244e-40
2.53235e-40
-1.16391e-39
-8.71583e-40
6.34653e-39
3.63683e-39
-3.27143e-38
-2.24827e-38
1.59506e-37
1.72951e-37
-7.00715e-37
-1.29286e-36
2.40151e-36
8.33016e-36
-2.87006e-36
-4.22178e-35
-4.03611e-35
1.36095e-34
3.8786e-34
3.25804e-35
-1.63585e-33
-3.21392e-33
4.93435e-34
1.4381e-32
3.00268e-32
1.29033e-32
-8.54976e-32
-2.67631e-31
-3.94718e-31
-1.25305e-31
1.0173e-30
3.40801e-30
7.00056e-30
1.11275e-29
1.46132e-29
1.62241e-29
1.52511e-29
1.18928e-29
7.19914e-30
2.59676e-30
-7.36195e-31
-2.30379e-30
-2.34051e-30
-1.52149e-30
-5.55697e-31
1.08287e-31
3.57081e-31
3.08925e-31
1.50321e-31
1.69005e-32
-4.32138e-32
-4.47889e-32
-2.28804e-32
-3.03881e-33
5.38233e-33
3.03938e-59
-1.17556e-59
1.39519e-58
-5.47801e-58
2.2252e-57
-8.18176e-57
2.66686e-56
-7.01934e-56
9.85641e-56
3.93385e-55
-4.52109e-54
2.7292e-53
-1.30181e-52
5.31833e-52
-1.90216e-51
5.93937e-51
-1.57767e-50
3.31295e-50
-4.14875e-50
-4.72336e-50
4.92619e-49
-1.7284e-48
3.59559e-48
-2.30491e-48
-1.524e-47
6.93122e-47
-1.3781e-46
5.9064e-48
8.56608e-46
-2.59221e-45
2.02914e-45
1.05215e-44
-3.93761e-44
3.16577e-44
1.64235e-43
-5.41455e-43
1.19924e-43
2.94317e-42
-5.81626e-42
-7.58696e-42
4.42886e-41
-1.62705e-41
-2.28358e-40
3.33836e-40
9.43853e-40
-2.57366e-39
-3.37791e-39
1.55708e-38
1.16296e-38
-8.48777e-38
-4.86142e-38
4.37423e-37
3.01126e-37
-2.13199e-36
-2.31744e-36
9.35822e-36
1.73139e-35
-3.20046e-35
-1.11437e-34
3.76405e-35
5.63784e-34
5.42852e-34
-1.81042e-33
-5.18691e-33
-4.87084e-34
2.17721e-32
4.3018e-32
-5.99084e-33
-1.91039e-31
-4.01215e-31
-1.77661e-31
1.1276e-30
3.55598e-30
5.27754e-30
1.77064e-30
-1.32889e-29
-4.4886e-29
-9.24267e-29
-1.47078e-28
-1.9326e-28
-2.14615e-28
-2.01738e-28
-1.57258e-28
-9.50963e-29
-3.41638e-29
9.92791e-30
3.06186e-29
3.10336e-29
2.0134e-29
7.31922e-30
-1.47311e-30
-4.75291e-30
-4.09847e-30
-1.98734e-30
-2.17161e-31
5.77343e-31
5.95194e-31
3.02883e-31
3.93116e-32
-7.18546e-32
-4.10346e-58
1.63796e-58
-1.91117e-57
7.57222e-57
-3.10583e-56
1.15998e-55
-3.88568e-55
1.08682e-54
-1.9737e-54
-2.50058e-54
4.94519e-53
-3.23601e-52
1.59542e-51
-6.63841e-51
2.40307e-50
-7.57159e-50
2.02728e-49
-4.2963e-49
5.49518e-49
5.65627e-49
-6.27294e-48
2.22558e-47
-4.67322e-47
3.11932e-47
1.93798e-46
-8.93807e-46
1.79326e-45
-1.23689e-46
-1.10073e-44
3.35994e-44
-2.68273e-44
-1.35076e-43
5.10169e-43
-4.16764e-43
-2.11433e-42
7.02335e-42
-1.6371e-42
-3.80356e-41
7.56204e-41
9.74677e-41
-5.74026e-40
2.14873e-40
2.95567e-39
-4.34047e-39
-1.22058e-38
3.33931e-38
4.36606e-38
-2.0188e-37
-1.5036e-37
1.10012e-36
6.29724e-37
-5.66826e-36
-3.90874e-36
2.76166e-35
3.00957e-35
-1.21119e-34
-2.24723e-34
4.13299e-34
1.44477e-33
-4.77851e-34
-7.29611e-33
-7.07742e-33
2.33344e-32
6.7225e-32
7.00737e-33
-2.80769e-31
-5.58049e-31
6.94181e-32
2.45863e-30
5.19541e-30
2.37171e-30
-1.44006e-29
-4.57751e-29
-6.83856e-29
-2.42355e-29
1.67953e-28
5.72399e-28
1.18174e-27
1.88274e-27
2.47541e-27
2.74965e-27
2.58459e-27
2.01395e-27
1.21652e-27
4.3515e-28
-1.29792e-28
-3.94256e-28
-3.98604e-28
-2.58061e-28
-9.33408e-29
1.94308e-29
6.1297e-29
5.26738e-29
2.54464e-29
2.6946e-30
-7.47509e-30
-7.66292e-30
-3.88353e-30
-4.91525e-31
9.29597e-31
5.36241e-57
-2.20437e-57
2.53209e-56
-1.01169e-55
4.18624e-55
-1.58535e-54
5.43567e-54
-1.59481e-53
3.38578e-53
-2.56837e-54
-5.00958e-52
3.6664e-51
-1.88169e-50
7.99621e-50
-2.93363e-49
9.33472e-49
-2.52069e-48
5.39371e-48
-7.04927e-48
-6.48732e-48
7.72422e-47
-2.77334e-46
5.88056e-46
-4.08673e-46
-2.38275e-45
1.11552e-44
-2.25937e-44
2.17022e-45
1.36862e-43
-4.21603e-43
3.43537e-43
1.67787e-42
-6.39883e-42
5.31401e-42
2.63412e-41
-8.81975e-41
2.16303e-41
4.7579e-40
-9.51948e-40
-1.21155e-39
7.20259e-39
-2.7488e-39
-3.70324e-38
5.46422e-38
1.52789e-37
-4.19477e-37
-5.46231e-37
2.53402e-36
1.88167e-36
-1.38041e-35
-7.8961e-36
7.11083e-35
4.9119e-35
-3.46317e-34
-3.78396e-34
1.5175e-33
2.82387e-33
-5.16623e-33
-1.81342e-32
5.86529e-33
9.14047e-32
8.93485e-32
-2.91087e-31
-8.43491e-31
-9.70203e-32
3.50443e-30
7.00874e-30
-7.63128e-31
-3.0622e-29
-6.5129e-29
-3.06662e-29
1.77886e-28
5.70256e-28
8.57878e-28
3.21008e-28
-2.05116e-27
-7.05928e-27
-1.46153e-26
-2.33151e-26
-3.06743e-26
-3.40819e-26
-3.20349e-26
-2.49517e-26
-1.50543e-26
-5.3597e-27
1.64328e-27
4.91301e-27
4.95401e-27
3.20006e-27
1.15121e-27
-2.48252e-28
-7.65131e-28
-6.55075e-28
-3.15206e-28
-3.2235e-29
9.36928e-29
9.5478e-29
4.81766e-29
5.93131e-30
-1.16419e-29
-6.7752e-56
2.86286e-56
-3.24123e-55
1.30516e-54
-5.44418e-54
2.08748e-53
-7.30253e-53
2.22702e-52
-5.2572e-52
4.60338e-52
4.56617e-51
-3.94995e-50
2.13095e-49
-9.2797e-49
3.45596e-48
-1.11157e-47
3.02911e-47
-6.54775e-47
8.74807e-47
7.09807e-47
-9.18564e-46
3.3405e-45
-7.15616e-45
5.17753e-45
2.82889e-44
-1.34585e-43
2.75306e-43
-3.41825e-44
-1.64465e-42
5.11551e-42
-4.25613e-42
-2.01415e-41
7.76054e-41
-6.55528e-41
-3.17201e-40
1.07103e-39
-2.76316e-40
-5.75421e-39
1.15897e-38
1.45541e-38
-8.73906e-38
3.40252e-38
4.48634e-37
-6.65298e-37
-1.84918e-36
5.09579e-36
6.60696e-36
-3.07581e-35
-2.27661e-35
1.67497e-34
9.57292e-35
-8.6261e-34
-5.9688e-34
4.19947e-33
4.60083e-33
-1.83845e-32
-3.43156e-32
6.2437e-32
2.20106e-31
-6.95175e-32
-1.10725e-30
-1.091e-30
3.51037e-30
1.02344e-29
1.29252e-30
-4.22863e-29
-8.51254e-29
7.88967e-30
3.68665e-28
7.89485e-28
3.83624e-28
-2.12273e-27
-6.86708e-27
-1.04068e-26
-4.11025e-27
2.41725e-26
8.40909e-26
1.74632e-25
2.78969e-25
3.6728e-25
4.08202e-25
3.83671e-25
2.98705e-25
1.7999e-25
6.3756e-26
-2.01261e-26
-5.9181e-26
-5.95062e-26
-3.83455e-26
-1.37141e-26
3.0687e-27
9.233e-27
7.87403e-27
3.77266e-27
3.71094e-28
-1.13555e-27
-1.14994e-27
-5.77537e-28
-6.89665e-29
1.40976e-28
8.26618e-55
-3.58437e-55
4.00397e-54
-1.62404e-53
6.82451e-53
-2.64611e-52
9.42037e-52
-2.96614e-51
7.56412e-51
-1.0639e-50
-3.50197e-50
4.01869e-49
-2.31086e-48
1.03569e-47
-3.9229e-47
1.27674e-46
-3.5135e-46
7.6766e-46
-1.04895e-45
-7.36997e-46
1.0535e-44
-3.88431e-44
8.4113e-44
-6.33554e-44
-3.23856e-43
1.56766e-42
-3.24036e-42
4.96962e-43
1.90761e-41
-5.99441e-41
5.09538e-41
2.33354e-40
-9.08969e-40
7.81399e-40
3.68737e-39
-1.25615e-38
3.40887e-39
6.71979e-38
-1.36297e-37
-1.68744e-37
1.02405e-36
-4.07044e-37
-5.24863e-36
7.82473e-36
2.16112e-35
-5.97904e-35
-7.71646e-35
3.60585e-34
2.6596e-34
-1.96289e-33
-1.12072e-33
1.01064e-32
7.00497e-33
-4.91811e-32
-5.40304e-32
2.15101e-31
4.02764e-31
-7.28666e-31
-2.58025e-30
7.94526e-31
1.29534e-29
1.28695e-29
-4.08735e-29
-1.19932e-28
-1.65603e-29
4.92666e-28
9.98608e-28
-7.56415e-29
-4.28485e-27
-9.24255e-27
-4.63744e-27
2.44377e-26
7.98336e-26
1.2193e-25
5.08177e-26
-2.74471e-25
-9.66214e-25
-2.01323e-24
-3.2209e-24
-4.24372e-24
-4.71805e-24
-4.43434e-24
-3.45068e-24
-2.0764e-24
-7.31445e-25
2.38161e-25
6.8823e-25
6.8992e-25
4.43428e-25
1.57588e-25
-3.66571e-26
-1.07576e-25
-9.13601e-26
-4.35728e-26
-4.10245e-27
1.32916e-26
1.33709e-26
6.68181e-27
7.71307e-28
-1.64862e-27
-9.72594e-54
4.32137e-54
-4.76724e-53
1.94682e-52
-8.23663e-52
3.22606e-51
-1.16636e-50
3.77244e-50
-1.02039e-49
1.8211e-49
1.77596e-49
-3.82166e-48
2.39169e-47
-1.10938e-46
4.28356e-46
-1.4124e-45
3.92813e-45
-8.68023e-45
1.21367e-44
7.20798e-45
-1.16354e-43
4.3542e-43
-9.53645e-43
7.47819e-43
3.56961e-42
-1.76056e-41
3.6791e-41
-6.7602e-42
-2.13264e-40
6.77473e-40
-5.88695e-40
-2.60564e-39
1.0268e-38
-8.98876e-39
-4.13218e-38
1.42101e-37
-4.05635e-38
-7.56718e-37
1.54623e-36
1.88562e-36
-1.15739e-35
4.70011e-36
5.92185e-35
-8.87801e-35
-2.43559e-34
6.76692e-34
8.69026e-34
-4.07732e-33
-2.99594e-33
2.21869e-32
1.26527e-32
-1.14206e-31
-7.92907e-32
5.55526e-31
6.12027e-31
-2.42728e-30
-4.55978e-30
8.20067e-30
2.9175e-29
-8.74338e-30
-1.46151e-28
-1.46459e-28
4.5888e-28
1.35558e-27
2.03914e-28
-5.53461e-27
-1.12998e-26
6.55615e-28
4.80122e-26
1.04361e-25
5.41021e-26
-2.71023e-25
-8.94778e-25
-1.3779e-24
-6.05926e-25
2.99777e-24
1.06927e-23
2.23607e-23
3.58326e-23
4.72502e-23
5.25496e-23
4.93875e-23
3.8412e-23
2.30793e-23
8.08107e-24
-2.71941e-24
-7.71622e-24
-7.71013e-24
-4.94163e-24
-1.74411e-24
4.22608e-25
1.20855e-24
1.0218e-24
4.84931e-25
4.34444e-26
-1.50052e-25
-1.49886e-25
-7.45016e-26
-8.28001e-27
1.85937e-26
1.10197e-52
-5.01035e-53
5.463e-52
-2.24521e-51
9.55901e-51
-3.77856e-50
1.38495e-49
-4.58332e-49
1.29873e-48
-2.68567e-48
5.49333e-49
3.33983e-47
-2.35261e-46
1.13781e-45
-4.49126e-45
1.50242e-44
-4.2266e-44
9.45239e-44
-1.35309e-43
-6.56569e-44
1.23546e-42
-4.69831e-42
1.0414e-41
-8.50257e-42
-3.78172e-41
1.90344e-40
-4.02377e-40
8.66669e-41
2.29457e-39
-7.3738e-39
6.55452e-39
2.79975e-38
-1.11705e-37
9.96456e-38
4.45722e-37
-1.54823e-36
4.64933e-37
8.20503e-36
-1.68972e-35
-2.02766e-35
1.25979e-34
-5.23113e-35
-6.43411e-34
9.70358e-34
2.64311e-33
-7.37671e-33
-9.42326e-33
4.44051e-32
3.24929e-32
-2.41534e-31
-1.37547e-31
1.24296e-30
8.64365e-31
-6.04344e-30
-6.6773e-30
2.63787e-29
4.97211e-29
-8.88734e-29
-3.17723e-28
9.24907e-29
1.58806e-27
1.60573e-27
-4.96004e-27
-1.47572e-26
-2.41085e-27
5.98635e-26
1.23158e-25
-4.85758e-27
-5.17883e-25
-1.13489e-24
-6.0828e-25
2.89096e-24
9.65413e-24
1.49976e-23
6.9582e-24
-3.14355e-23
-1.13787e-22
-2.389e-22
-3.83515e-22
-5.06168e-22
-5.63147e-22
-5.29236e-22
-4.11391e-22
-2.46776e-22
-8.58355e-23
2.99199e-23
8.32813e-23
8.29261e-23
5.2989e-23
1.85617e-23
-4.69553e-24
-1.3072e-23
-1.09995e-23
-5.19236e-24
-4.39425e-25
1.63142e-24
1.61746e-24
7.99333e-25
8.51204e-26
-2.01952e-25
-1.20041e-51
5.5786e-52
-6.0161e-51
2.48741e-50
-1.06522e-49
4.24621e-49
-1.57555e-48
5.31838e-48
-1.56492e-47
3.58061e-47
-3.29314e-47
-2.59706e-46
2.1874e-45
-1.11433e-44
4.51246e-44
-1.53402e-43
4.3695e-43
-9.89701e-43
1.45126e-42
5.46517e-43
-1.2589e-41
4.87188e-41
-1.09362e-40
9.29773e-41
3.84371e-40
-1.97792e-39
4.23233e-39
-1.05127e-39
-2.37196e-38
7.71705e-38
-7.02193e-38
-2.89001e-37
1.16844e-36
-1.06286e-36
-4.62011e-36
1.62206e-35
-5.12548e-36
-8.55246e-35
1.77593e-34
2.09467e-34
-1.31855e-33
5.60335e-34
6.72117e-33
-1.0201e-32
-2.75747e-32
7.73327e-32
9.82239e-32
-4.65046e-31
-3.38747e-31
2.52847e-30
1.43746e-30
-1.30082e-29
-9.06011e-30
6.32193e-29
7.0055e-29
-2.75648e-28
-5.21381e-28
9.25987e-28
3.32729e-27
-9.38823e-28
-1.65919e-26
-1.69335e-26
5.15348e-26
1.54484e-25
2.73365e-26
-6.22416e-25
-1.29087e-24
2.57475e-26
5.36868e-24
1.18674e-23
6.58087e-24
-2.9608e-23
-1.00109e-22
-1.56976e-22
-7.68434e-23
3.15834e-22
1.16225e-21
2.45094e-21
3.94226e-21
5.2081e-21
5.79675e-21
5.44741e-21
4.23183e-21
2.53397e-21
8.74957e-22
-3.16705e-22
-8.63885e-22
-8.56974e-22
-5.45803e-22
-1.89617e-22
5.02034e-23
1.35911e-22
1.13778e-22
5.33986e-23
4.23002e-24
-1.70556e-23
-1.67751e-23
-8.23855e-24
-8.35701e-25
2.10901e-24
1.25502e-50
-5.95512e-51
6.35589e-50
-2.64284e-49
1.13795e-48
-4.57133e-48
1.71502e-47
-5.89022e-47
1.78816e-46
-4.40631e-46
6.16801e-46
1.66305e-45
-1.90782e-44
1.03875e-43
-4.33457e-43
1.50045e-42
-4.33222e-42
9.94614e-42
-1.4949e-41
-4.00451e-42
1.22854e-40
-4.84603e-40
1.1025e-39
-9.76213e-40
-3.74028e-39
1.97187e-38
-4.27394e-38
1.20896e-38
2.35148e-37
-7.75194e-37
7.22608e-37
2.86052e-36
-1.1731e-35
1.08899e-35
4.59361e-35
-1.6313e-34
5.42576e-35
8.55455e-34
-1.79209e-33
-2.07494e-33
1.32469e-32
-5.76696e-33
-6.7385e-32
1.02968e-31
2.76072e-31
-7.78293e-31
-9.82439e-31
4.67532e-30
3.38852e-30
-2.54085e-29
-1.44158e-29
1.30683e-28
9.11518e-29
-6.3482e-28
-7.05551e-28
2.76487e-27
5.24849e-27
-9.25963e-27
-3.3449e-26
9.12594e-27
1.66391e-25
1.71474e-25
-5.13785e-25
-1.55245e-24
-2.96876e-25
6.20979e-24
1.29893e-23
7.05656e-27
-5.33932e-23
-1.19121e-22
-6.83952e-23
2.90584e-22
9.95906e-22
1.57726e-21
8.14789e-22
-3.03313e-21
-1.13726e-20
-2.40993e-20
-3.88463e-20
-5.13743e-20
-5.72065e-20
-5.3756e-20
-4.17323e-20
-2.494e-20
-8.54188e-21
3.21979e-21
8.59713e-21
8.49376e-21
5.39032e-21
1.85565e-21
-5.15649e-22
-1.35592e-21
-1.12884e-21
-5.26455e-22
-3.85793e-23
1.71154e-22
1.6691e-22
8.14202e-23
7.81044e-24
-2.114e-23
-1.25685e-49
6.08379e-50
-6.42972e-49
2.68793e-48
-1.16328e-47
4.70655e-47
-1.78351e-46
6.21968e-46
-1.93854e-45
5.05643e-45
-8.82142e-45
-6.4529e-45
1.54335e-43
-9.18058e-43
3.97042e-42
-1.40282e-41
4.11097e-41
-9.57521e-41
1.47606e-40
2.34788e-41
-1.14563e-39
4.61468e-39
-1.06491e-38
9.82301e-39
3.47649e-38
-1.88229e-37
4.13571e-37
-1.31908e-37
-2.23108e-36
7.45986e-36
-7.12967e-36
-2.70934e-35
1.12827e-34
-1.06977e-34
-4.37216e-34
1.57183e-33
-5.50545e-34
-8.195e-33
1.73299e-32
1.96681e-32
-1.27502e-31
5.69256e-32
6.47146e-31
-9.96082e-31
-2.64729e-30
7.50548e-30
9.41045e-30
-4.50352e-29
-3.24586e-29
2.44632e-28
1.38458e-28
-1.25786e-27
-8.7851e-28
6.10742e-27
6.80824e-27
-2.65695e-26
-5.06232e-26
8.86966e-26
3.2218e-25
-8.47675e-26
-1.59861e-24
-1.66419e-24
4.90552e-24
1.49477e-23
3.08308e-24
-5.93349e-23
-1.25242e-22
-2.76905e-24
5.08431e-22
1.14558e-21
6.81604e-22
-2.7271e-21
-9.48629e-21
-1.5185e-20
-8.28012e-21
2.7768e-20
1.06368e-19
2.26627e-19
3.66173e-19
4.84835e-19
5.40141e-19
5.0753e-19
3.93717e-19
2.34784e-19
7.96872e-20
-3.13814e-20
-8.19189e-20
-8.05775e-20
-5.09364e-20
-1.73589e-20
5.07865e-21
1.29547e-20
1.07209e-20
4.96542e-21
3.31404e-22
-1.64552e-21
-1.59012e-21
-7.6999e-22
-6.92141e-23
2.02998e-22
1.20307e-48
-5.93591e-49
6.21498e-48
-2.61147e-47
1.13561e-46
-4.62514e-46
1.76873e-45
-6.25255e-45
1.99319e-44
-5.43886e-44
1.09017e-43
-3.29576e-44
-1.13665e-42
7.6554e-42
-3.45768e-41
1.25057e-40
-3.72522e-40
8.81146e-40
-1.39413e-39
-6.97961e-41
1.01827e-38
-4.19753e-38
9.83433e-38
-9.45323e-38
-3.07836e-37
1.71663e-36
-3.82669e-36
1.36531e-36
2.02135e-35
-6.86247e-35
6.7307e-35
2.44992e-34
-1.03732e-33
1.0055e-33
3.97468e-33
-1.44797e-32
5.34407e-33
7.50241e-32
-1.60258e-31
-1.77986e-31
1.17322e-30
-5.37848e-31
-5.94058e-30
9.21553e-30
2.42608e-29
-6.9208e-29
-8.61347e-29
4.14764e-28
2.97079e-28
-2.25189e-27
-1.27081e-27
1.15755e-26
8.09352e-27
-5.61767e-26
-6.28104e-26
2.44099e-25
4.66853e-25
-8.12132e-25
-2.96703e-24
7.50553e-25
1.4683e-23
1.54473e-23
-4.47589e-23
-1.37608e-22
-3.05619e-23
5.41809e-22
1.15469e-21
5.17857e-23
-4.62551e-21
-1.0533e-20
-6.50007e-21
2.44151e-20
8.63294e-20
1.39782e-19
8.04865e-20
-2.41581e-19
-9.48589e-19
-2.03339e-18
-3.29416e-18
-4.36736e-18
-4.8682e-18
-4.57398e-18
-3.54535e-18
-2.10911e-18
-7.08583e-19
2.92617e-19
7.4576e-19
7.30027e-19
4.59498e-19
1.54838e-19
-4.78665e-20
-1.18278e-19
-9.72504e-20
-4.47002e-20
-2.65953e-21
1.51249e-20
1.4473e-20
6.95219e-21
5.78701e-22
-1.86347e-21
-1.09801e-47
5.51852e-48
-5.72639e-47
2.41795e-46
-1.05622e-45
4.32844e-45
-1.66919e-44
5.97307e-44
-1.94164e-43
5.49646e-43
-1.21329e-42
1.14124e-42
7.35535e-42
-5.98492e-41
2.85285e-40
-1.06004e-39
3.21537e-39
-7.7322e-39
1.25657e-38
-7.441e-40
-8.60169e-38
3.63796e-37
-8.66235e-37
8.68058e-37
2.58901e-36
-1.49201e-35
3.37767e-35
-1.33946e-35
-1.74427e-34
6.02031e-34
-6.06564e-34
-2.10956e-33
9.09484e-33
-9.02201e-33
-3.44257e-32
1.27222e-31
-4.95154e-32
-6.54783e-31
1.41389e-30
1.53369e-30
-1.0296e-29
4.85332e-30
5.19994e-29
-8.13525e-29
-2.11973e-28
6.08777e-28
7.51522e-28
-3.64366e-27
-2.59152e-27
1.97721e-26
1.11184e-26
-1.01605e-25
-7.11021e-26
4.9286e-25
5.52692e-25
-2.13895e-24
-4.10678e-24
7.09136e-24
2.60633e-23
-6.31757e-24
-1.28623e-22
-1.36815e-22
3.89335e-22
1.20838e-21
2.88573e-22