/*--------------------------------*- C++ -*----------------------------------*\
  =========                 |
  \\      /  F ield         | OpenFOAM: The Open Source CFD Toolbox
   \\    /   O peration     | Website:  https://openfoam.org
    \\  /    A nd           | Version:  13
     \\/     M anipulation  |
\*---------------------------------------------------------------------------*/
FoamFile
{
    format      ascii;
    class       volScalarField;
    location    "1.2";
    object      T;
}
// * * * * * * * * * * * * * * * * * * * * * * * * * * * * * * * * * * * * * //

dimensions      [0 0 0 1 0 0 0];

internalField   nonuniform List<scalar> 
10000
(
0
0
0
0
0
0
0
0
0
0
0
0
0
0
0
0
0
0
0
0
0
0
0
0
0
0
0
0
0
0
0
0
0
0
0
0
0
0
0
0
0
0
0
0
0
0
0
0
0
0
0
0
0
0
0
0
0
0
0
0
0
0
0
0
0
0
0
0
0
0
0
0
0
0
0
0
0
0
0
0
0
0
0
0
0
0
0
0
0
0
0
0
0
0
0
0
0
0
0
0
0
0
0
0
0
0
0
0
0
0
0
0
0
0
0
0
0
0
0
0
0
0
0
0
0
0
0
0
0
0
0
0
0
0
0
0
0
0
0
0
0
0
0
0
0
0
0
0
0
0
0
0
0
0
0
0
0
0
0
0
0
0
0
0
0
0
0
0
0
0
0
0
0
0
0
0
0
0
0
0
0
0
0
0
0
0
0
0
0
0
0
0
0
0
0
0
0
0
0
0
0
0
0
0
0
0
0
0
0
0
0
0
0
0
0
0
0
0
0
0
0
0
0
0
0
0
0
0
0
0
0
0
0
0
0
0
0
0
0
0
0
0
0
0
0
0
0
0
0
0
0
0
0
0
0
0
0
0
0
0
0
0
0
0
0
0
0
0
0
0
0
0
0
0
0
0
0
0
0
0
0
0
0
0
0
0
0
0
0
0
0
0
0
0
0
0
0
0
0
0
0
0
0
0
0
0
0
0
0
0
0
0
0
0
0
0
0
0
0
0
0
0
0
0
0
0
0
0
0
0
0
0
0
0
0
0
0
0
0
0
0
0
0
0
0
0
0
0
0
0
0
0
0
0
0
0
0
0
0
0
0
0
0
0
0
0
0
0
0
0
0
0
0
0
0
0
0
0
0
0
0
0
0
0
0
0
0
0
0
0
0
0
0
0
0
0
0
0
0
0
0
0
0
0
0
0
0
0
0
0
0
0
0
0
0
0
0
0
0
0
0
0
0
0
0
0
0
0
0
0
0
0
0
0
0
0
0
0
0
0
0
0
0
0
0
0
0
0
0
0
0
0
0
0
0
0
0
0
0
0
0
0
0
0
0
0
0
0
0
0
0
0
0
0
0
0
0
0
0
0
0
0
0
0
0
0
0
0
0
0
0
0
0
0
0
0
0
0
0
0
0
0
0
0
0
0
0
0
0
0
0
0
0
0
0
0
0
0
0
0
0
0
0
0
0
0
0
0
0
0
0
0
0
0
0
0
0
0
0
0
0
0
0
0
0
0
0
0
0
0
0
0
0
0
0
0
0
0
0
0
0
0
0
0
0
0
0
0
0
0
0
0
0
0
0
0
0
0
0
0
0
0
0
0
0
0
0
0
0
0
0
0
0
0
0
0
0
0
0
0
0
0
0
0
0
0
0
0
0
0
0
0
0
0
0
0
0
0
0
0
0
0
0
0
0
0
0
0
0
0
0
0
0
0
0
0
0
0
0
0
0
0
0
0
0
0
0
0
0
0
0
0
0
0
0
0
0
0
0
0
0
0
0
0
0
0
0
0
0
0
0
0
0
0
0
0
0
0
0
0
0
0
0
0
0
0
0
0
0
0
0
0
0
0
0
0
0
0
0
0
0
0
0
0
0
0
0
0
0
0
0
0
0
0
0
0
0
0
0
0
0
0
0
0
0
0
0
0
0
0
0
0
0
0
0
0
0
0
0
0
0
0
0
0
0
0
0
0
0
0
0
0
0
0
0
0
0
0
0
0
0
0
0
0
0
0
0
0
0
0
0
0
0
0
0
0
0
0
0
0
0
0
0
0
0
0
0
0
0
0
0
0
0
0
0
0
0
0
0
0
0
0
0
0
0
0
0
0
0
0
0
0
0
0
0
0
0
0
0
0
0
0
0
0
0
0
0
0
0
0
0
0
0
0
0
0
0
0
0
0
0
0
0
0
0
0
0
0
0
0
0
0
0
0
0
0
0
0
0
0
0
0
0
0
0
0
0
0
0
0
0
0
0
0
0
0
0
0
0
0
0
0
0
0
0
0
0
0
0
0
0
0
0
0
0
0
0
0
0
0
0
0
0
0
0
0
0
0
0
0
0
0
0
0
0
0
0
0
0
0
0
0
0
0
0
0
0
0
0
0
0
0
0
0
0
0
0
0
0
0
0
0
0
0
0
0
0
0
0
0
0
0
0
0
0
0
0
0
0
0
0
0
0
0
0
0
0
0
0
0
0
0
0
0
0
0
0
0
0
0
0
0
0
0
0
0
0
0
0
0
0
0
0
0
0
0
0
0
0
0
0
0
0
0
0
0
0
0
0
0
0
0
0
0
0
0
0
0
0
0
0
0
0
0
0
0
0
0
0
0
0
0
0
0
0
0
0
0
0
0
0
0
0
0
0
0
0
0
0
0
0
0
0
0
0
0
0
0
0
0
0
0
0
0
0
0
0
0
0
0
0
0
0
0
0
0
0
0
0
0
0
0
0
0
0
0
0
0
0
0
0
0
0
0
0
0
0
0
0
0
0
0
0
0
0
0
0
0
0
0
0
0
0
0
0
0
0
0
0
0
0
0
0
0
0
0
0
0
0
0
0
0
0
0
0
0
0
0
0
0
0
0
0
0
0
0
0
0
0
0
0
0
0
0
0
0
0
0
0
0
0
0
0
0
0
0
0
0
0
0
0
0
0
0
0
0
0
0
0
0
0
0
0
0
0
0
0
0
0
0
0
0
0
0
0
0
0
0
0
0
0
0
0
0
0
0
0
0
0
0
0
0
0
0
0
0
0
0
0
0
0
0
0
0
0
0
0
0
0
0
0
0
0
0
0
0
0
0
0
0
0
0
0
0
0
0
0
0
0
0
0
0
0
0
0
0
0
0
0
0
0
0
0
0
0
0
0
0
0
0
0
0
0
0
0
0
0
0
0
0
0
0
0
0
0
0
0
0
0
0
0
0
0
0
0
0
0
0
0
0
0
0
0
0
0
0
0
0
0
0
0
0
0
0
0
0
0
0
0
0
0
0
0
0
0
0
0
0
0
0
0
0
0
0
0
0
0
0
0
0
0
0
0
0
0
0
0
0
0
0
0
0
0
0
0
0
0
0
0
0
0
0
0
0
0
0
0
0
0
0
0
0
0
0
0
0
0
0
0
0
0
0
0
0
0
0
0
0
0
0
0
0
0
0
0
0
0
0
0
0
0
0
0
0
0
0
0
0
0
0
0
0
0
0
0
0
0
0
0
0
0
0
0
0
0
0
0
0
0
0
0
0
0
0
0
0
0
0
0
0
0
0
0
0
0
0
0
0
0
0
0
0
0
0
0
0
0
0
0
0
0
0
0
0
0
0
0
0
0
0
0
0
0
0
0
0
0
0
0
0
0
0
0
0
0
0
0
0
0
0
0
0
0
0
0
0
0
0
0
0
0
0
0
0
0
0
0
0
0
0
0
0
0
0
0
0
0
0
0
0
0
0
0
0
0
0
0
0
0
0
0
0
0
0
0
0
0
0
0
0
0
0
0
0
0
0
0
0
0
0
0
0
0
0
0
0
0
0
0
0
0
0
0
0
0
0
0
0
0
0
0
0
0
0
0
0
0
0
0
0
0
0
0
0
0
0
0
0
0
0
0
0
0
0
0
0
0
0
0
0
0
0
0
0
0
0
0
0
0
0
0
0
0
0
0
0
0
0
0
0
0
0
0
0
0
0
0
0
0
0
0
0
0
0
0
0
0
0
0
0
0
0
0
0
0
0
0
0
0
0
0
0
0
0
0
0
0
0
0
0
0
0
0
0
0
0
0
0
0
0
0
0
0
0
0
0
0
0
0
0
0
0
0
0
0
0
0
0
0
0
0
0
0
0
0
0
0
0
0
0
0
0
0
0
0
0
0
0
0
0
0
0
0
0
0
0
0
0
0
0
0
0
0
0
0
0
0
0
0
0
0
0
0
0
0
0
0
0
0
0
0
0
0
0
0
0
0
0
0
0
0
0
0
0
0
0
0
0
0
0
0
0
0
0
0
0
0
0
0
0
0
0
0
0
0
0
0
0
0
0
0
0
0
0
0
0
0
0
0
0
0
0
0
0
0
0
0
0
0
0
0
0
0
0
0
0
0
0
0
0
0
0
0
0
0
0
0
0
0
0
0
0
0
0
0
0
0
0
0
0
0
0
0
0
0
0
0
0
0
0
0
0
0
0
0
0
0
0
0
0
0
0
0
0
0
0
0
0
0
0
0
0
0
0
0
0
0
0
0
0
0
0
0
0
0
0
0
0
0
0
0
0
0
0
0
0
0
0
0
0
0
0
0
0
0
0
0
0
0
0
0
0
0
0
0
0
0
0
0
0
0
0
0
0
0
0
0
0
0
0
0
0
0
0
0
0
0
0
0
0
0
0
0
0
0
0
0
0
0
0
0
0
0
0
0
0
0
0
0
0
0
0
0
0
0
0
0
0
0
0
0
0
0
0
0
0
0
0
0
0
0
0
0
0
0
0
0
0
0
0
0
0
0
0
0
0
0
0
0
0
0
0
0
0
0
0
0
0
0
0
0
0
0
0
0
0
0
0
0
0
0
0
0
0
0
0
0
0
0
0
0
0
0
0
0
0
0
0
0
0
0
0
0
0
0
0
0
0
0
0
0
0
0
0
0
0
0
0
0
0
0
0
0
0
0
0
0
0
0
0
0
0
0
0
0
0
0
0
0
0
0
0
0
0
0
0
0
0
0
0
0
0
0
0
0
0
0
0
0
0
0
0
0
0
0
0
0
0
0
0
0
0
0
0
0
0
0
0
0
0
0
0
0
0
0
0
0
0
0
0
0
0
0
0
0
0
0
0
0
0
0
0
0
0
0
0
0
0
0
0
0
0
0
0
0
0
0
0
0
0
0
0
0
0
0
0
0
0
0
0
0
0
0
0
0
0
0
0
0
0
0
0
0
0
0
0
0
0
0
0
0
0
0
0
0
0
0
0
0
0
0
0
0
0
0
0
0
0
0
0
0
0
0
0
0
0
0
0
0
0
0
0
0
0
0
0
0
0
0
0
0
0
0
0
0
0
0
0
0
0
0
0
0
0
0
0
0
0
0
0
0
0
0
0
0
0
0
0
0
0
0
0
0
0
0
0
0
0
0
0
0
0
0
0
0
0
0
0
0
0
0
0
0
0
0
0
0
0
0
0
0
0
0
0
0
0
0
0
0
0
0
0
0
0
0
0
0
0
0
0
0
0
0
0
0
0
0
0
0
0
0
0
0
0
0
0
0
0
0
0
0
0
0
0
0
0
0
0
0
0
0
0
0
0
0
0
0
0
0
0
0
0
0
0
0
0
0
0
0
0
0
0
0
0
0
0
0
0
0
0
0
0
0
0
0
0
0
0
0
0
0
0
0
0
0
0
0
0
0
0
0
0
0
0
0
0
0
0
0
0
0
0
0
0
0
0
0
0
0
0
0
0
0
0
0
0
0
0
0
0
0
0
0
0
0
0
0
0
0
0
0
0
0
0
0
0
0
0
0
0
0
0
0
0
0
0
0
0
0
0
0
0
0
1.22281e-320
-8.37244e-320
3.8716e-319
-8.15673e-319
-9.71294e-319
5.08726e-318
-1.3584e-318
1.50795e-318
3.53994e-317
-9.49611e-316
6.84889e-316
6.28088e-316
4.65313e-317
-1.72842e-316
-2.40863e-316
-1.32861e-316
4.55286e-316
-9.27724e-316
1.23685e-316
2.97575e-316
1.48764e-316
2.8887e-317
-1.06635e-316
1.18811e-315
-6.58858e-316
-4.22656e-316
-7.30746e-317
-2.77721e-317
2.75849e-317
3.03767e-317
1.44078e-317
-1.60372e-317
9.07081e-318
1.08589e-317
-4.68768e-318
6.61836e-319
-6.05507e-319
3.21513e-319
-9.17282e-320
5.04688e-320
2.69266e-320
-4.13039e-321
-3.26083e-321
-4.43671e-321
3.49304e-321
-1.5316e-322
0
0
0
0
0
0
0
0
0
0
0
0
0
0
0
0
0
0
0
0
0
0
0
0
0
0
0
0
0
0
0
0
0
-1.26975e-321
2.69908e-320
-3.28346e-319
3.70584e-318
-2.87598e-317
2.29457e-316
-2.93775e-315
2.77288e-314
-2.21013e-313
1.04153e-312
-1.16768e-311
6.32791e-311
-1.74935e-310
-5.96712e-310
2.46037e-309
-2.78872e-309
-2.87784e-308
2.8937e-307
-4.56599e-307
6.87728e-308
-2.83005e-307
3.22024e-306
-2.12597e-305
1.16853e-304
8.71668e-305
-9.18894e-303
1.51198e-301
-1.77596e-300
5.58287e-300
-2.91895e-300
-1.37045e-300
-8.67323e-302
2.471e-301
2.03125e-301
1.36734e-301
-6.2144e-302
-3.21006e-301
2.99822e-301
-4.44132e-301
-1.28158e-301
2.9274e-300
-1.37282e-300
-2.63378e-300
-1.84583e-301
1.25038e-300
1.69305e-301
2.53203e-301
2.64153e-301
9.96134e-304
-1.41704e-301
-7.8102e-302
2.24663e-302
2.19102e-302
7.06061e-303
-5.11334e-303
-4.33663e-303
-1.39611e-303
1.34809e-304
3.30579e-304
1.81745e-304
1.82298e-305
-1.41809e-305
-7.82021e-306
-7.16553e-306
5.76607e-307
3.18269e-306
1.27703e-306
-8.75326e-307
-4.59252e-307
1.6127e-307
1.81113e-307
4.60973e-308
-2.40789e-310
-3.75151e-309
-1.32506e-309
6.47788e-310
-9.87112e-310
4.42077e-310
0
0
0
0
0
0
0
-6.96633e-322
5.36061e-321
-4.42381e-319
5.52512e-318
-1.02567e-316
9.63623e-316
-8.71421e-315
2.32736e-315
6.31802e-314
6.22412e-314
-4.83417e-313
8.46718e-312
-1.63609e-310
3.04724e-309
-4.59262e-308
6.183e-307
-7.95787e-306
9.97062e-305
-1.2237e-303
1.62118e-302
-1.31629e-301
1.11183e-300
-1.33431e-299
8.94821e-299
-1.00774e-297
8.3397e-297
-5.9474e-296
3.03529e-295
7.61053e-296
6.58283e-295
-1.78748e-293
2.00688e-292
-1.67903e-292
2.60001e-292
-2.75556e-291
2.22364e-290
-7.48438e-291
-4.37753e-291
4.73148e-292
-3.79109e-289
1.10674e-287
-1.33802e-286
1.27886e-285
-3.9789e-285
7.47975e-286
1.3074e-285
6.91924e-286
1.65403e-286
-2.45421e-287
-5.61487e-287
-4.31785e-286
4.62465e-286
7.51611e-287
8.94249e-287
8.46699e-286
-2.99615e-285
-7.21247e-287
1.17124e-285
7.74334e-286
1.359e-286
4.11402e-286
-2.12062e-286
-1.96065e-286
-7.19734e-287
-8.48088e-288
2.65449e-287
-3.78302e-288
-5.13747e-288
-3.50621e-288
-1.57901e-288
-3.63391e-290
3.8628e-289
2.28243e-289
5.21679e-290
-7.8398e-291
-3.3608e-291
-1.2766e-291
-6.59315e-292
-6.1797e-292
3.27941e-291
-1.84355e-291
-1.0805e-291
1.07142e-292
3.45023e-292
1.15088e-292
8.00544e-294
-7.62675e-294
-3.13995e-294
-3.25434e-295
2.28031e-295
-1.7131e-294
1.14533e-294
5.86698e-295
-4.89252e-315
1.87299e-313
-2.43134e-312
5.06698e-311
-5.3633e-310
1.07065e-308
-2.18161e-307
2.01062e-306
-3.78417e-305
3.70961e-304
-6.78643e-303
5.36402e-302
-9.30203e-301
1.6745e-299
-1.85614e-299
1.27097e-298
-7.58125e-299
-2.54311e-298
3.76013e-297
-6.30464e-296
1.03758e-294
5.53564e-294
-8.76075e-293
1.11759e-291
-1.35164e-290
1.51466e-289
-4.37108e-288
5.58976e-287
-6.6953e-286
7.72716e-285
-8.55625e-284
3.48398e-283
-3.45427e-282
3.61173e-281
-3.60561e-280
3.44963e-279
-2.30458e-279
1.88938e-278
-2.83651e-277
1.22863e-276
-6.64961e-277
2.00142e-276
-1.7749e-275
1.17044e-274
-1.94504e-275
-7.63794e-275
5.52823e-274
-5.59313e-273
5.2763e-272
-3.45543e-271
1.22035e-270
-9.61775e-271
1.69206e-270
-7.3863e-270
-3.79605e-271
3.09515e-270
2.45017e-270
8.26501e-271
-2.8355e-271
6.83336e-270
-5.33621e-270
-2.67291e-270
6.80531e-272
3.23716e-270
-1.86481e-270
2.70426e-270
-2.43196e-270
-3.10524e-271
-1.05666e-271
1.81671e-271
-1.99333e-271
-5.61179e-272
-1.60555e-272
-5.05247e-273
-1.22835e-273
-8.80478e-274
6.01836e-274
3.64112e-274
9.54404e-275
5.31942e-276
-2.41368e-275
8.35641e-276
4.00462e-276
3.22685e-277
-2.85748e-277
4.99072e-276
-4.58908e-276
-9.22008e-277
3.48121e-277
2.1798e-277
1.28663e-278
1.29139e-277
-7.01958e-278
-5.61949e-278
-1.65984e-278
-4.86487e-280
-3.34805e-279
4.03869e-279
1.06478e-279
-7.33989e-281
1.1265e-299
-1.92822e-298
3.3132e-297
-5.97075e-296
1.04089e-294
-1.72254e-293
2.65497e-292
-3.66463e-291
4.07258e-290
-7.52683e-289
8.23207e-288
-1.46545e-286
2.63471e-285
-3.11681e-284
2.76295e-283
-2.44234e-283
1.17307e-282
-2.03619e-281
1.16509e-281
2.04265e-280
-2.51103e-279
3.76184e-278
-5.59306e-277
5.95416e-276
-5.33314e-275
3.21371e-274
-4.43675e-273
-9.12285e-273
8.76705e-272
-1.44887e-271
6.26929e-269
-6.45957e-268
1.55126e-266
-1.36067e-265
6.96462e-265
-3.29371e-264
2.64896e-263
6.3887e-265
-2.31933e-262
1.01407e-261
-7.48311e-261
5.67067e-260
2.03409e-259
-7.19371e-260
-9.56642e-260
-4.85761e-260
-1.32427e-259
1.03269e-258
-8.2426e-258
5.19002e-257
-2.10554e-256
-2.96395e-256
1.00958e-254
-2.83074e-254
4.93941e-255
1.00572e-254
5.02504e-255
4.85473e-255
4.34522e-255
-8.49509e-255
-3.73113e-255
-2.16058e-256
3.30288e-255
3.53512e-255
-5.60215e-256
-3.1004e-255
-1.60015e-255
-3.07876e-256
2.83059e-256
3.14056e-256
8.02891e-257
-4.97198e-258
-4.20427e-257
-1.07338e-257
5.3029e-258
9.32091e-259
-1.25756e-259
-4.61366e-259
-1.02843e-259
1.37001e-260
2.62283e-260
7.72867e-261
1.71843e-259
-1.05037e-259
-6.03204e-260
-1.20089e-260
-5.0442e-261
7.6244e-261
1.07113e-261
-8.76013e-262
-2.02531e-262
-9.12689e-263
-3.00766e-262
-1.19442e-262
3.31344e-264
2.3469e-263
9.75437e-264
8.82029e-266
-1.37171e-264
-8.86024e-266
-5.13432e-286
9.04061e-284
-1.05565e-282
2.11355e-281
-4.30163e-280
8.60443e-279
-1.69183e-277
3.2689e-276
-6.20466e-275
6.54639e-274
-1.16177e-272
2.08749e-271
-1.71981e-270
2.83293e-269
-4.80164e-268
7.96562e-267
-6.033e-266
3.5519e-266
2.01804e-266
-7.60389e-266
1.17319e-264
-1.71729e-263
2.45777e-262
-3.43817e-261
4.69842e-260
-6.26828e-259
8.15872e-258
-1.03525e-256
6.9982e-256
-8.12914e-255
9.56694e-254
-1.08899e-252
-2.70315e-252
3.35497e-251
-3.08695e-250
2.7623e-249
-2.36699e-248
-1.98426e-249
1.53023e-247
-4.63007e-246
3.60689e-245
-6.7214e-245
-1.44706e-244
6.76767e-244
1.52371e-243
-4.18039e-243
9.13768e-243
8.85917e-242
-6.84608e-243
-5.20398e-242
-3.80099e-242
7.1831e-241
-9.19943e-240
1.54323e-239
2.65085e-240
-2.45546e-240
4.10803e-241
-5.87241e-240
-9.36828e-240
-8.24697e-240
1.0446e-239
9.11112e-240
3.51464e-243
-1.733e-240
-1.77051e-240
-4.43482e-241
-2.3591e-242
2.40155e-241
1.32471e-241
1.20006e-242
-2.35265e-242
-1.72517e-242
6.59298e-243
-3.91096e-243
-3.40405e-243
-1.37782e-243
-2.56207e-244
5.18898e-245
5.2468e-245
1.46086e-245
1.02741e-246
-2.14541e-245
2.09124e-244
-9.77969e-245
-6.22876e-245
-3.6769e-245
-2.91441e-246
3.08926e-246
4.93527e-246
8.25452e-247
-3.41697e-247
-2.00814e-247
-6.91132e-248
3.75932e-248
2.04622e-248
3.59674e-249
-6.09165e-250
-5.05138e-250
3.5127e-250
-2.95507e-250
9.25308e-270
-1.02097e-268
1.54624e-267
-1.03571e-266
-2.21972e-265
1.07774e-263
-2.13137e-262
3.71704e-261
-5.65093e-260
1.02457e-258
-1.41017e-257
2.20395e-256
-3.36892e-255
4.25137e-254
-5.774e-253
7.77806e-252
-9.87298e-251
9.57481e-250
-5.76683e-249
4.95975e-248
-5.39852e-247
5.41422e-246
-4.39282e-245
-2.22869e-244
1.28856e-244
2.29539e-243
-3.33059e-243
-6.52725e-242
1.89091e-240
-2.0037e-239
1.88146e-238
-1.65474e-237
1.70891e-236
-7.17164e-236
6.57318e-235
1.7425e-235
-2.21274e-233
1.87201e-232
-3.59808e-232
-1.32296e-231
2.03756e-230
-5.75663e-230
3.69146e-230
1.25144e-229
1.29308e-228
-2.98606e-228
2.35533e-227
3.63591e-227
-2.05687e-225
-3.01049e-225
1.11097e-224
-7.55883e-225
-6.76952e-225
4.97669e-225
1.31029e-225
1.59768e-225
6.04443e-225
2.32178e-225
-4.00424e-225
-5.60971e-225
-2.03702e-225
1.57812e-225
1.39435e-225
7.73984e-226
2.08108e-226
-1.047e-226
-1.71986e-226
-8.40328e-227
-1.32021e-228
1.58787e-227
2.10377e-228
5.03191e-228
8.66437e-228
4.4e-228
2.98181e-229
-1.68143e-228
-6.21231e-229
2.55052e-228
-1.48781e-229
-8.86208e-229
-6.5998e-229
-1.55779e-230
1.93026e-229
7.69061e-230
2.88942e-230
4.43534e-231
-1.59337e-230
-5.66991e-231
-2.2887e-232
5.41924e-232
1.90837e-232
7.53511e-233
-5.02914e-233
-3.46799e-233
2.51306e-235
7.92888e-234
3.10573e-234
-1.51965e-235
-6.83528e-235
-1.33399e-235
-1.21999e-254
1.1779e-253
-2.33051e-252
4.65847e-251
-6.88592e-250
1.48852e-250
7.31694e-248
-1.40722e-246
2.5699e-245
-4.83014e-244
5.59839e-243
-9.45587e-242
1.60031e-240
-2.65232e-239
3.42444e-238
-5.38095e-237
6.32936e-236
-9.48442e-235
6.91254e-234
-3.65482e-233
4.81432e-232
-6.66546e-231
8.97416e-230
7.37136e-229
-3.82145e-229
-1.92944e-228
2.02923e-227
-2.40377e-226
-5.19988e-226
7.60391e-225
-8.0859e-224
8.4167e-223
-2.25977e-221
9.67654e-221
-4.82098e-220
4.17497e-219
2.80693e-218
-2.49537e-217
4.07643e-217
-2.50335e-216
-1.56979e-215
5.46124e-215
-6.45876e-215
1.58361e-214
-1.71438e-213
7.04846e-214
4.82433e-212
-4.75138e-211
1.45272e-210
1.43198e-210
-2.33906e-210
7.5941e-210
-3.97829e-210
-1.16958e-210
3.8226e-210
3.54203e-210
-3.68729e-210
-6.19689e-210
-3.3222e-210
6.13725e-211
1.37905e-210
1.17657e-210
5.75871e-211
-1.48058e-211
-1.63878e-211
-1.50116e-211
-1.55508e-212
3.20097e-213
-6.94033e-213
4.09472e-213
3.05102e-213
5.90377e-213
9.75482e-214
-3.3901e-214
-2.78009e-214
2.42807e-213
2.0648e-213
-2.0755e-213
-1.71166e-213
-4.663e-214
-3.14579e-215
1.02219e-214
5.43408e-215
4.05447e-215
-2.07024e-215
-1.30586e-215
-7.95631e-217
-1.40997e-216
1.36497e-217
1.1327e-217
8.98503e-218
-6.8525e-218
-3.88555e-218
6.83745e-219
8.85071e-219
7.73137e-223
-8.03131e-220
-5.31546e-220
-2.45984e-221
4.34225e-221
-1.89017e-239
2.5231e-238
-3.32362e-237
5.09603e-236
-9.7383e-235
1.49948e-233
-2.13048e-232
1.52858e-231
-4.99346e-231
-6.56396e-229
1.81165e-227
-2.0406e-226
1.5439e-225
-1.98281e-224
3.98371e-223
-4.58811e-222
4.14241e-221
-5.39077e-220
1.3292e-218
-1.10658e-217
1.23988e-216
-1.39498e-215
2.15519e-214
-2.29487e-213
2.83741e-212
-2.2317e-211
1.08221e-210
-7.35838e-211
1.17907e-208
-9.22864e-209
-6.73047e-208
3.18646e-207
-2.84155e-206
-7.85809e-206
1.66914e-204
-1.43156e-203
4.67062e-203
-3.29381e-202
2.38008e-201
-7.73516e-201
-2.52965e-201
1.31897e-200
1.0848e-200
-2.21019e-199
-1.48111e-198
1.09433e-197
-5.29922e-197
1.73005e-196
1.05642e-196
-3.91002e-195
8.83475e-195
1.40582e-196
-4.81269e-195
-7.25657e-195
1.78507e-195
3.65136e-195
2.1019e-195
2.82946e-196
-5.07489e-196
-3.93022e-196
-7.49596e-196
-8.12559e-197
2.71331e-196
2.73568e-196
1.51978e-196
-1.34025e-196
1.10274e-196
3.16414e-197
-3.17371e-198
-1.24834e-197
-9.42975e-198
2.94317e-198
3.2936e-199
-2.27014e-198
-2.71073e-198
5.48942e-198
-6.95199e-198
5.90965e-199
1.80541e-198
3.43608e-199
-4.18636e-199
9.46526e-200
1.60338e-199
6.95503e-200
-2.83873e-201
-2.0563e-200
-6.09787e-201
-1.62034e-201
1.9073e-205
1.26204e-203
1.36394e-202
-2.22099e-203
-3.33513e-203
-9.95047e-204
5.59719e-204
3.93672e-204
7.61425e-205
-9.90676e-206
-1.106e-205
-1.53039e-206
-1.19465e-224
1.886e-223
-2.94179e-222
5.61694e-221
-7.79543e-220
1.4293e-218
-2.61038e-217
4.67716e-216
-8.22066e-215
1.4168e-213
-2.39338e-212
3.96122e-211
9.04577e-211
-1.93185e-209
-3.73519e-208
6.11686e-207
-1.32531e-206
1.23886e-204
-1.82486e-203
5.30081e-203
-5.89046e-202
-7.68684e-201
1.07472e-199
-4.15147e-200
-2.68666e-197
3.29337e-196
-2.42523e-195
2.59459e-194
-2.7635e-193
2.13513e-193
-7.89418e-193
8.38209e-192
-7.64828e-191
-1.86027e-190
1.93896e-189
-1.52876e-188
1.16378e-187
-5.60886e-187
1.83896e-186
-1.09665e-185
2.29083e-187
-5.22366e-186
1.05041e-184
-9.07818e-184
6.78176e-183
-1.74363e-182
2.7656e-182
-7.51017e-182
-7.02121e-181
4.19678e-180
-6.42711e-180
-3.36216e-180
1.9356e-180
2.78485e-180
2.28965e-180
-4.92318e-181
-7.93415e-181
-2.06147e-181
1.172e-180
4.80756e-181
-9.08644e-181
7.95517e-182
5.77994e-181
1.22907e-181
-3.04925e-181
-3.21177e-181
-1.3998e-181
5.36427e-184
4.67558e-182
2.90811e-182
9.18952e-183
-4.61209e-183
-3.64712e-183
-1.05675e-183
1.23982e-183
-8.26312e-183
8.43768e-183
1.94404e-183
-2.1474e-183
-8.40752e-184
2.66188e-184
-9.46022e-185
1.21501e-184
-6.05593e-185
-1.91771e-185
2.20365e-186
-3.94975e-186
7.91667e-187
5.64694e-188
2.13028e-187
1.45569e-187
7.36879e-188
-1.20846e-188
-6.4622e-189
-1.6619e-189
1.0755e-190
2.24539e-190
5.25951e-191
1.96361e-191
-8.12059e-192
1.10691e-209
-1.70726e-208
3.28767e-207
-6.40784e-206
1.04865e-204
-2.45675e-203
4.43917e-202
-7.79619e-201
1.78693e-199
-2.24359e-198
5.03155e-197
-8.24727e-196
7.23463e-195
-1.5115e-193
1.74204e-192
-1.74089e-191
2.47067e-190
-2.17851e-189
4.46888e-188
-4.35197e-187
3.48264e-186
-4.31865e-185
2.89907e-184
-5.9918e-183
4.77911e-182
-2.93749e-181
3.10839e-180
-1.38038e-179
2.95631e-178
-1.73354e-177
6.18713e-177
1.86721e-176
-1.93117e-175
1.60067e-174
5.41761e-175
-9.16144e-174
6.11071e-173
-4.09977e-172
2.51576e-171
-1.38719e-170
1.63874e-170
1.30682e-170
-9.28585e-170
7.86645e-169
-5.33474e-168
3.84315e-168
-3.42691e-168
-4.09574e-167
5.64116e-166
-3.78907e-165
3.39167e-165
3.52771e-165
4.3619e-166
-1.77759e-165
-3.90286e-165
-2.75515e-166
2.9909e-165
9.64255e-166
-2.27175e-166
-1.26238e-165
-1.00128e-165
-2.24296e-166
2.45036e-166
2.7975e-166
1.36088e-166
1.79565e-167
-2.38742e-167
-2.01766e-167
-7.13606e-168
1.0934e-168
-7.65438e-168
7.84819e-167
-7.44403e-167
2.16335e-168
-1.95217e-167
7.76021e-168
8.96051e-168
5.1831e-168
2.27149e-168
-5.34847e-169
-8.32205e-169
-2.82375e-169
1.43058e-169
6.98127e-170
1.75201e-170
-7.53838e-171
-7.7249e-171
-1.32981e-171
1.65354e-172
3.23034e-172
6.84277e-173
-2.18132e-173
-1.14973e-173
-7.23031e-174
1.03539e-174
8.89764e-175
1.63569e-175
-2.99178e-176
-1.04683e-176
-5.99317e-177
3.68785e-195
-5.44693e-194
-4.25528e-193
3.25057e-191
-1.24921e-189
3.04105e-188
-5.39651e-187
1.0001e-185
-1.81162e-184
3.10063e-183
-4.61175e-182
6.57424e-181
-9.64672e-180
1.30841e-178
-1.80712e-177
2.43114e-176
-2.96501e-175
3.48507e-174
-3.95792e-173
4.74066e-172
-5.51265e-171
5.54766e-170
-5.94867e-169
5.38469e-168
-5.2761e-167
4.94733e-166
-4.35286e-165
3.68949e-164
-2.89628e-163
2.1798e-162
-1.6068e-161
1.07878e-160
-7.21964e-160
3.01214e-159
-1.59315e-158
7.12038e-158
-3.48428e-157
1.44696e-156
-3.86364e-156
1.10982e-155
-1.15492e-155
-1.93371e-156
2.17847e-154
-1.37796e-153
5.63606e-153
-1.9783e-152
3.29887e-152
1.55616e-151
-1.1162e-150
2.89339e-150
-9.82776e-153
-5.93941e-150
-6.27115e-151
2.83039e-150
2.7764e-150
1.49903e-150
-4.66616e-151
-1.47357e-150
-9.12792e-151
-5.23855e-151
-4.69659e-152
3.94085e-151
3.32725e-151
4.93071e-151
1.12752e-151
-1.47058e-151
-3.42106e-151
-3.29292e-151
2.06798e-151
3.19427e-151
9.02858e-152
-8.39906e-152
-1.09802e-151
-3.47986e-152
1.64984e-152
2.09975e-152
7.93858e-153
-4.3079e-154
-2.45841e-153
-1.10627e-153
2.01547e-155
2.20315e-154
9.13087e-155
5.26708e-156
-1.21747e-155
-5.81953e-156
-3.5807e-157
7.23456e-157
3.07465e-157
1.9602e-158
-1.23023e-158
-5.02825e-158
6.99403e-159
7.29378e-159
1.91647e-159
-1.0408e-160
-3.89357e-160
-9.40009e-161
3.92252e-161
2.2059e-161
-4.70834e-179
1.61895e-178
-2.61511e-177
4.76641e-176
-8.49915e-175
5.02486e-174
-7.91215e-173
1.32959e-171
-2.18408e-170
-4.66806e-169
7.95185e-168
-1.12712e-166
1.70131e-165
-2.74653e-164
3.98832e-163
-5.17015e-162
6.458e-161
-7.78206e-160
9.01562e-159
-1.14203e-157
1.4155e-156
-1.49238e-155
1.73277e-154
-1.68449e-153
1.83538e-152
-1.95233e-151
1.66851e-150
-1.63728e-149
1.24534e-148
-8.35092e-148
7.23854e-147
-3.92925e-146
3.07469e-145
-1.37258e-144
9.60167e-144
-2.76112e-143
1.65177e-142
-9.85413e-142
1.79045e-141
-7.8606e-141
1.60588e-141
7.42107e-141
-1.30636e-139
4.75059e-139
-1.18087e-138
4.88641e-138
-1.26377e-137
-5.36453e-137
3.21608e-136
-5.30056e-136
-4.85626e-136
1.59971e-135
4.47909e-136
-2.21326e-136
-2.56296e-137
-6.67267e-136
-6.044e-136
3.04074e-137
-2.5474e-136
5.72045e-137
2.39637e-136
1.6088e-136
3.34793e-136
-1.47042e-136
-1.74764e-136
-2.15842e-136
3.95972e-137
2.19446e-136
1.33604e-136
-7.8597e-137
-9.40712e-137
-4.76068e-137
1.17015e-138
1.58231e-137
8.65799e-138
1.1443e-138
-1.45962e-138
-9.34238e-139
-1.57924e-139
8.50707e-140
7.18507e-140
1.50081e-140
-5.59132e-141
-4.16165e-141
-9.22946e-142
1.89555e-142
2.12394e-142
5.38129e-143
-9.29867e-144
-7.17828e-144
-3.40883e-143
1.86845e-143
1.00277e-143
1.54905e-144
-4.58831e-145
-2.66615e-145
-2.33326e-146
2.15043e-146
8.24604e-147
-4.51655e-148
-6.01238e-164
8.62967e-163
6.73614e-162
-1.36246e-160
-2.2155e-159
4.1257e-158
-6.92842e-157
1.14167e-155
-1.84199e-154
-2.25784e-155
2.32408e-153
-3.44173e-152
5.0966e-151
-7.37025e-150
1.04046e-148
-1.43295e-147
1.92403e-146
-2.51685e-145
3.20506e-144
-3.97006e-143
4.77926e-142
-5.58627e-141
6.33344e-140
-6.95725e-139
7.39596e-138
-7.5987e-137
7.53426e-136
-7.1977e-135
6.61314e-134
-5.83152e-133
4.92353e-132
-2.95304e-131
2.22714e-130
-1.62278e-129
8.61507e-129
-4.06847e-128
1.46551e-127
-7.82745e-127
1.63073e-126
-6.43622e-126
-1.28883e-126
1.52809e-125
-1.42476e-124
2.22516e-124
-8.13011e-124
3.57285e-123
-9.24326e-123
2.46851e-122
-1.83664e-121
2.02286e-121
4.80537e-121
-7.1535e-121
-6.38989e-121
-3.92849e-122
4.78014e-121
5.38946e-121
1.36606e-121
7.8972e-121
-4.6048e-121
-5.17562e-121
-7.11331e-121
1.62629e-121
3.40652e-121
3.38198e-121
-7.57942e-123
-2.02634e-121
-1.59845e-121
5.11441e-124
9.2718e-122
6.35343e-122
9.80322e-123
-8.63557e-123
-6.82389e-123
-1.67896e-123
6.11408e-124
6.68014e-124
2.15065e-124
-2.04798e-125
-4.76529e-125
-1.79119e-125
-6.90541e-129
2.81292e-126
1.15473e-126
4.97065e-128
-1.43585e-127
-6.12016e-128
-3.75671e-129
6.42205e-129
2.48997e-129
3.47772e-129
-3.7625e-128
3.01444e-127
-8.88687e-128
-9.5461e-128
-8.86119e-128
-7.35416e-129
8.97545e-129
5.5669e-129
-4.32434e-130
-7.77355e-130
-4.36498e-148
5.05248e-147
-6.02889e-146
1.03479e-144
-1.50468e-143
2.32092e-142
-3.51549e-141
4.6978e-140
-6.60019e-139
8.98372e-138
-1.34867e-136
1.48661e-135
-1.34992e-134
1.85076e-133
-1.13707e-132
1.43299e-131
-1.16651e-130
1.437e-129
-1.7749e-128
1.70341e-127
-1.464e-126
1.06782e-125
-1.13736e-124
1.20365e-123
-5.68778e-123
-1.25932e-122
5.11627e-121
-4.84953e-120
4.26683e-119
-3.10368e-118
2.28767e-117
-1.60072e-116
9.41036e-116
-5.64589e-115
3.13372e-114
-2.10124e-113
1.16581e-112
-4.93172e-112
1.74748e-111
-4.60695e-111
4.91387e-111
3.01366e-110
-1.5933e-109
6.98517e-109
-1.89998e-108
3.11924e-108
5.36367e-108
-4.59689e-107
6.19501e-107
-3.54455e-107
-3.47033e-106
1.57972e-106
6.09596e-106
1.07594e-106
-7.4528e-106
-7.73656e-106
1.74293e-106
9.86165e-106
8.43625e-106
6.95625e-107
-5.05277e-106
-5.0433e-106
-1.80239e-106
7.17859e-107
9.68138e-107
4.24514e-107
-3.6004e-107
-4.41356e-107
-1.81097e-107
7.25396e-108
-1.22606e-107
-1.79421e-107
3.63284e-107
1.88054e-107
-1.10132e-107
-1.77296e-107
-3.97954e-108
5.96834e-108
2.56424e-108
4.63371e-109
-1.38126e-108
-1.16708e-108
8.68968e-110
4.6887e-109
1.83241e-109
-5.9505e-110
-6.60668e-110
-1.86747e-110
-4.23422e-112
8.70879e-111
2.60294e-111
-1.36413e-112
-5.39881e-112
-2.04045e-112
6.50027e-113
5.2841e-113
1.16806e-113
-5.69068e-114
-3.49237e-114
-1.08526e-115
2.40315e-133
-3.27955e-132
3.65062e-131
-6.1135e-130
4.28573e-129
-6.64171e-128
1.0722e-126
-1.69154e-125
2.61043e-124
-7.52616e-123
1.13287e-121
-8.54709e-121
1.15124e-119
-1.57986e-118
1.25883e-117
-1.58571e-116
7.06057e-116
-7.93421e-115
9.55254e-114
-1.11186e-112
1.25528e-111
-1.37303e-110
1.45335e-109
-1.48679e-108
1.46796e-107
-8.10672e-107
4.45152e-106
4.62592e-106
-5.65231e-105
4.42069e-104
-3.40539e-103
2.48557e-102
-1.71426e-101
1.11063e-100
5.25034e-100
3.55251e-99
-1.93325e-98
8.42083e-98
-3.14004e-97
8.08575e-97
4.9434e-98
-1.34215e-95
5.35671e-95
-2.17971e-94
2.28186e-94
-1.99157e-94
-1.98347e-93
1.5159e-92
-4.55208e-92
-1.94367e-92
2.39897e-91
-8.46876e-92
-3.0962e-91
-7.08297e-92
2.68631e-91
4.10413e-91
2.45796e-91
-5.20145e-92
-2.42083e-91
-2.3751e-91
-1.21822e-91
-1.73655e-92
2.19879e-92
1.3443e-92
1.72702e-93
-1.71401e-92
-8.67133e-92
6.00019e-92
2.40481e-92
-4.18848e-92
3.80314e-92
4.57557e-92
-1.4768e-92
-1.83936e-92
-7.09393e-93
2.85957e-93
3.27607e-93
-1.68333e-94
-1.06742e-93
-1.71404e-93
-3.09722e-94
8.02799e-94
5.11133e-94
4.33217e-95
-6.15146e-95
-6.14757e-95
-1.00661e-95
1.5875e-95
8.0407e-96
1.46805e-96
-1.02696e-96
-5.44007e-97
-5.8312e-98
4.34241e-98
2.66447e-98
1.48897e-99
-2.99356e-99
-1.09697e-99
3.31129e-101
1.22722e-100
-3.53543e-118
4.69981e-117
-9.85262e-116
1.34941e-114
-1.93127e-113
3.09319e-112
-3.5327e-111
5.35681e-110
-8.07854e-109
1.38329e-107
-1.74494e-106
2.08677e-105
-1.92989e-104
1.91702e-103
-1.74041e-102
2.93771e-101
-3.66204e-100
3.49253e-99
-2.11307e-98
2.27575e-97
-2.48718e-96
2.00926e-95
-1.54636e-94
7.30853e-94
-6.5978e-93
6.06835e-92
-4.8114e-91
3.61724e-90
-2.30331e-89
1.9692e-88
-1.4483e-87
1.00056e-86
-5.0126e-86
2.69264e-85
-1.52045e-84
7.02405e-84
-2.90747e-83
8.07001e-83
-2.18424e-82
9.10813e-83
8.45948e-82
-8.91407e-81
4.2685e-80
-1.197e-79
2.06174e-79
-9.93661e-80
-2.1511e-79
-2.95021e-78
1.38858e-77
2.26564e-77
-7.72469e-77
4.13356e-78
6.46573e-77
-9.17502e-77
3.42928e-77
2.48965e-76
1.83301e-76
-3.75079e-76
-8.75041e-76
-7.04321e-76
1.45457e-76
9.04453e-76
9.17846e-76
5.36217e-76
-3.05566e-76
-5.32063e-76
-2.99756e-76
-3.19189e-77
1.08437e-76
1.11907e-76
1.50276e-77
-3.81999e-77
-9.39862e-78
2.76681e-77
1.19113e-77
3.21684e-78
-6.53856e-78
-5.87345e-78
-1.07245e-78
1.46584e-78
1.34937e-78
4.11927e-79
-8.24481e-80
-1.72752e-79
-6.17696e-80
4.44998e-81
1.65269e-80
6.23657e-81
-2.67586e-82
-1.17397e-81
-4.48618e-82
3.92594e-83
7.01098e-83
2.32352e-83
-2.56739e-84
-4.00005e-84
-9.7457e-85
1.12647e-85
1.77214e-85
2.15692e-86
-3.04972e-103
4.04042e-102
-7.15285e-101
1.19822e-99
-2.02541e-98
3.02556e-97
-4.5093e-96
6.35995e-95
-8.71004e-94
1.15841e-92
-1.55666e-91
2.04019e-90
-2.71553e-89
3.22956e-88
-3.50016e-87
3.80756e-86
-3.97021e-85
4.25223e-84
-4.40402e-83
3.60477e-82
-2.76575e-81
2.1199e-80
-1.73403e-79
1.3263e-78
-3.72862e-78
2.36716e-77
-1.88072e-76
1.34696e-75
-9.88024e-75
6.59863e-74
-3.90882e-73
2.25635e-72
-1.46498e-71
7.88055e-71
-3.86067e-70
1.57717e-69
-5.47773e-69
1.90396e-68
-4.57683e-68
-1.58945e-70
7.75531e-67
-4.88004e-66
1.80032e-65
-5.37671e-65
6.41632e-65
1.40601e-64
-9.10679e-64
2.36365e-63
-2.6508e-64
-1.48037e-62
2.92019e-62
1.96892e-62
-1.70967e-62
-1.29041e-61
-1.04781e-61
1.02681e-61
3.42317e-61
2.41261e-61
-6.27603e-62
-3.76844e-61
-3.48371e-61
-7.92451e-62
1.62423e-61
2.24507e-61
1.2694e-61
3.20736e-62
-4.21655e-62
-3.8596e-62
-3.12842e-62
5.5904e-62
-1.72555e-63
-7.77643e-62
-4.6202e-62
-7.65255e-63
1.88181e-62
1.8849e-62
7.29652e-63
-1.33201e-63
-2.63997e-63
-1.26538e-63
-9.36742e-65
2.1143e-64
1.37939e-64
2.50451e-65
-1.24548e-65
-1.0594e-65
-2.51592e-66
7.03409e-67
7.13552e-67
1.86345e-67
-3.60152e-68
-3.94374e-68
-9.50932e-69
2.12239e-69
2.0043e-69
3.5983e-70
-1.42419e-70
-9.39049e-71
-9.99915e-72
8.61808e-72
-4.29838e-89
5.41094e-88
-8.90044e-87
1.43231e-85
3.86118e-84
-6.35712e-83
9.55557e-82
-1.40587e-80
2.01983e-79
-2.8321e-78
3.87297e-77
-5.1621e-76
6.70101e-75
-8.46548e-74
1.03993e-72
-1.24113e-71
1.43774e-70
-1.61496e-69
1.75705e-68
-1.45543e-67
1.45997e-66
-1.43406e-65
1.35581e-64
-1.23287e-63
8.1871e-64
-2.66721e-63
2.49342e-62
-1.90602e-61
1.3965e-60
-9.69831e-60
6.35888e-59
-3.91596e-58
2.25002e-57
-1.19554e-56
5.80058e-56
-2.51951e-55
9.45707e-55
-2.83378e-54
5.07313e-54
8.90148e-54
-1.33639e-52
7.18428e-52
-2.56232e-51
5.8858e-51
-3.7537e-51
-3.31409e-50
1.40022e-49
-9.42075e-50
-5.72332e-49
2.84823e-48
-2.7568e-48
-3.96425e-48
-3.74757e-48
1.48796e-47
3.66238e-47
2.30505e-47
-1.8519e-47
-4.76686e-47
-3.48622e-47
2.12527e-47
1.00343e-47
2.29681e-46
5.04322e-47
-6.67743e-47
-6.29174e-47
-3.74392e-47
-2.28286e-47
-2.79243e-47
6.81784e-47
-8.8195e-47
-5.78663e-47
-9.16928e-48
1.24713e-47
1.1412e-47
5.73971e-48
5.37535e-49
-1.01145e-48
-8.62419e-49
-2.3246e-49
6.27632e-50
5.78193e-50
3.23034e-50
7.2643e-51
-1.4226e-51
-1.66025e-51
-4.51734e-52
8.08598e-53
1.05656e-52
3.08706e-53
-3.39837e-54
-5.85064e-54
-1.46279e-54
2.36658e-55
1.17359e-55
-2.95072e-56
-2.97834e-56
-1.15879e-56
6.52516e-57
3.33299e-57
-5.27969e-58
1.42979e-72
-1.74912e-71
1.79398e-70
-2.75474e-69
1.86504e-68
-2.64941e-67
3.90316e-66
-5.60592e-65
7.85801e-64
1.90993e-63
-1.99045e-61
2.68085e-60
-3.38073e-59
1.14007e-58
-1.18473e-57
1.38104e-56
-1.55042e-55
1.68625e-54
-1.77441e-53
1.80426e-52
-1.77037e-51
5.45984e-50
-5.14204e-49
4.47813e-48
-3.74806e-47
2.99869e-46
-2.28769e-45
1.65923e-44
-1.14012e-43
7.3919e-43
-4.49968e-42