/*--------------------------------*- C++ -*----------------------------------*\
  =========                 |
  \\      /  F ield         | OpenFOAM: The Open Source CFD Toolbox
   \\    /   O peration     | Website:  https://openfoam.org
    \\  /    A nd           | Version:  13
     \\/     M anipulation  |
\*---------------------------------------------------------------------------*/
FoamFile
{
    format      ascii;
    class       volScalarField;
    location    "4.9";
    object      T;
}
// * * * * * * * * * * * * * * * * * * * * * * * * * * * * * * * * * * * * * //

dimensions      [0 0 0 1 0 0 0];

internalField   nonuniform List<scalar> 
10000
(
3.2028e-64
-1.55981e-64
1.64341e-63
-6.88062e-63
2.9818e-62
-1.20864e-61
4.59157e-61
-1.60719e-60
5.0402e-60
-1.33122e-59
2.41929e-59
9.99766e-60
-3.70707e-58
2.26658e-57
-9.90445e-57
3.51981e-56
-1.03584e-55
2.42261e-55
-3.76159e-55
-4.82926e-56
2.87123e-54
-1.16393e-53
2.69763e-53
-2.51907e-53
-8.70044e-53
4.75121e-52
-1.0485e-51
3.46664e-52
5.62018e-51
-1.88813e-50
1.81977e-50
6.82e-50
-2.85546e-49
2.72773e-49
1.10236e-48
-3.9811e-48
1.42093e-48
2.07114e-47
-4.39601e-47
-4.94921e-47
3.22857e-46
-1.45681e-46
-1.63719e-45
2.52831e-45
6.69217e-45
-1.90266e-44
-2.37703e-44
1.14114e-43
8.19385e-44
-6.19779e-43
-3.49716e-43
3.18672e-42
2.22268e-42
-1.54725e-41
-1.72453e-41
6.72996e-41
1.2828e-40
-2.24516e-40
-8.16346e-40
2.13012e-40
4.04841e-39
4.22542e-39
-1.2402e-38
-3.78778e-38
-7.97808e-39
1.50019e-37
3.17529e-37
9.16153e-39
-1.28398e-36
-2.90229e-36
-1.74687e-36
6.8519e-36
2.39561e-35
3.84889e-35
2.13736e-35
-6.91048e-35
-2.66813e-34
-5.69581e-34
-9.21084e-34
-1.22008e-33
-1.35949e-33
-1.27739e-33
-9.90672e-34
-5.90309e-34
-1.99701e-34
7.98665e-35
2.06858e-34
2.03155e-34
1.28247e-34
4.35499e-35
-1.29695e-35
-3.27436e-35
-2.70417e-35
-1.24944e-35
-8.05432e-37
4.16804e-36
4.01523e-36
1.93942e-36
1.70309e-37
-5.13979e-37
-1.54875e-63
7.69419e-64
-8.02818e-63
3.37906e-62
-1.47159e-61
6.00563e-61
-2.30287e-60
8.17256e-60
-2.62154e-59
7.23862e-59
-1.49849e-58
7.81957e-59
1.33796e-57
-9.4507e-57
4.33289e-56
-1.57941e-55
4.73043e-55
-1.12468e-54
1.79483e-54
2.58123e-56
-1.28414e-53
5.337e-53
-1.25712e-52
1.22578e-52
3.87489e-52
-2.18471e-51
4.89637e-51
-1.81608e-51
-2.56599e-50
8.76309e-50
-8.68109e-50
-3.10721e-49
1.32448e-48
-1.29536e-48
-5.0514e-48
1.85052e-47
-6.97964e-48
-9.56291e-47
2.05192e-46
2.25645e-46
-1.49895e-45
6.95844e-46
7.58145e-45
-1.18083e-44
-3.09333e-44
8.85433e-44
1.09719e-43
-5.30353e-43
-3.78142e-43
2.87893e-42
1.61868e-42
-1.47982e-41
-1.03303e-41
7.18149e-41
8.02823e-41
-3.11985e-40
-5.97001e-40
1.03714e-39
3.79377e-39
-9.4959e-40
-1.87619e-38
-1.98008e-38
5.70731e-38
1.75968e-37
4.00187e-38
-6.90939e-37
-1.47749e-36
-7.83537e-38
5.89003e-36
1.34656e-35
8.42323e-36
-3.08897e-35
-1.09929e-34
-1.78803e-34
-1.05134e-34
3.01808e-34
1.19762e-33
2.5737e-33
4.174e-33
5.53679e-33
6.1731e-33
5.79985e-33
4.49403e-33
2.67085e-33
8.93524e-34
-3.76137e-34
-9.49543e-34
-9.27712e-34
-5.82915e-34
-1.95527e-34
6.1775e-35
1.50775e-34
1.23651e-34
5.66632e-35
3.2068e-36
-1.93314e-35
-1.84274e-35
-8.82379e-36
-7.11309e-37
2.38054e-36
1.42293e-62
-7.12936e-63
7.40822e-62
-3.12508e-61
1.36379e-60
-5.58133e-60
2.14832e-59
-7.66632e-59
2.48096e-58
-6.96483e-58
1.50542e-57
-1.21301e-57
-1.0519e-56
8.09516e-56
-3.80354e-55
1.40359e-54
-4.23865e-54
1.01538e-53
-1.64029e-53
5.79966e-55
1.13933e-52
-4.79115e-52
1.13693e-51
-1.12986e-51
-3.43082e-51
1.96381e-50
-4.43261e-50
1.72506e-50
2.29891e-49
-7.91095e-49
7.93448e-49
2.78098e-48
-1.19537e-47
1.18164e-47
4.53327e-47
-1.6718e-46
6.46196e-47
8.61252e-46
-1.85734e-45
-2.02006e-45
1.35347e-44
-6.36535e-45
-6.83735e-44
1.0692e-43
2.78729e-43
-8.00398e-43
-9.87949e-43
4.79128e-42
3.40437e-42
-2.60024e-41
-1.4592e-41
1.3364e-40
9.33082e-41
-6.48412e-40
-7.25752e-40
2.81537e-39
5.39649e-39
-9.34448e-39
-3.42723e-38
8.41612e-39
1.69283e-37
1.79546e-37
-5.13311e-37
-1.58945e-36
-3.73571e-37
6.21645e-36
1.33555e-35
8.55025e-37
-5.28949e-35
-1.21561e-34
-7.73577e-35
2.75128e-34
9.87337e-34
1.61511e-33
9.73905e-34
-2.6464e-33
-1.0644e-32
-2.29475e-32
-3.72672e-32
-4.94681e-32
-5.51687e-32
-5.18311e-32
-4.01444e-32
-2.38285e-32
-7.92909e-33
3.41874e-33
8.52956e-33
8.31316e-33
5.21198e-33
1.73801e-33
-5.64309e-34
-1.35636e-33
-1.10873e-33
-5.06104e-34
-2.67518e-35
1.74483e-34
1.65515e-34
7.89331e-35
6.09463e-36
-2.14729e-35
-1.23949e-61
6.27076e-62
-6.48552e-61
2.7428e-60
-1.19974e-59
4.9255e-59
-1.90395e-58
6.83585e-58
-2.23354e-57
6.3812e-57
-1.43993e-56
1.55066e-56
7.39235e-56
-6.46518e-55
3.1364e-54
-1.17532e-53
3.58531e-53
-8.6668e-53
1.42033e-52
-1.32318e-53
-9.52111e-52
4.06185e-51
-9.72471e-51
9.88085e-51
2.85959e-50
-1.6675e-49
3.79589e-49
-1.55974e-49
-1.9442e-48
6.75209e-48
-6.87193e-48
-2.34899e-47
1.01995e-46
-1.02109e-46
-3.84166e-46
1.42817e-45
-5.6805e-46
-7.32999e-45
1.59037e-44
1.70675e-44
-1.15551e-43
5.51895e-44
5.8288e-43
-9.15895e-43
-2.37363e-42
6.84267e-42
8.40604e-42
-4.09313e-41
-2.89599e-41
2.22071e-40
1.24325e-40
-1.14117e-39
-7.96877e-40
5.53553e-39
6.20454e-39
-2.40198e-38
-4.61323e-38
7.95748e-38
2.92773e-37
-7.02519e-38
-1.44399e-36
-1.54058e-36
4.36185e-36
1.35759e-35
3.31389e-36
-5.28463e-35
-1.14173e-34
-8.80476e-36
4.48653e-34
1.03759e-33
6.73741e-34
-2.31026e-33
-8.37585e-33
-1.37957e-32
-8.56653e-33
2.17886e-32
8.91388e-32
1.92936e-31
3.13863e-31
4.16963e-31
4.65173e-31
4.37013e-31
3.383e-31
2.00498e-31
6.62753e-32
-2.94175e-32
-7.23698e-32
-7.03252e-32
-4.39724e-32
-1.45575e-32
4.88448e-33
1.15285e-32
9.38657e-33
4.2644e-33
2.05875e-34
-1.48898e-33
-1.40417e-33
-6.66334e-34
-4.86817e-35
1.83103e-34
1.05114e-60
-5.36875e-61
5.52715e-60
-2.34329e-59
1.0273e-58
-4.2304e-58
1.6419e-57
-5.92909e-57
1.95465e-56
-5.67385e-56
1.32836e-55
-1.72659e-55
-4.79554e-55
4.99535e-54
-2.51305e-53
9.5751e-53
-2.9521e-52
7.20334e-52
-1.19777e-51
1.80627e-52
7.73958e-51
-3.3524e-50
8.10018e-50
-8.41504e-50
-2.31793e-49
1.37851e-48
-3.16566e-48
1.37124e-48
1.6005e-47
-5.61188e-47
5.79715e-47
1.93119e-46
-8.4745e-46
8.59461e-46
3.16927e-45
-1.18811e-44
4.86379e-45
6.07429e-44
-1.32626e-43
-1.40353e-43
9.60673e-43
-4.66177e-43
-4.83863e-42
7.64146e-42
1.96821e-41
-5.69717e-41
-6.96376e-41
3.40534e-40
2.39842e-40
-1.847e-39
-1.03129e-39
9.48989e-39
6.62673e-39
-4.60222e-38
-5.16546e-38
1.99573e-37
3.84057e-37
-6.59907e-37
-2.43567e-36
5.70584e-37
1.19952e-35
1.28743e-35
-3.60917e-35
-1.12927e-34
-2.86147e-35
4.37455e-34
9.50579e-34
8.60755e-35
-3.7052e-33
-8.62496e-33
-5.71583e-33
1.88773e-32
6.91824e-32
1.14763e-31
7.33906e-32
-1.74246e-31
-7.26245e-31
-1.57859e-30
-2.57262e-30
-3.4207e-30
-3.8176e-30
-3.58633e-30
-2.77472e-30
-1.6418e-30
-5.38854e-31
2.46567e-31
5.97842e-31
5.7915e-31
3.61101e-31
1.18628e-31
-4.11843e-32
-9.5412e-32
-7.73643e-32
-3.49717e-32
-1.51854e-33
1.23743e-32
1.15985e-32
5.4754e-33
3.76022e-34
-1.5205e-33
-8.6675e-60
4.4689e-60
-4.57992e-59
1.94644e-58
-8.55199e-58
3.53208e-57
-1.37622e-56
4.99706e-56
-1.66125e-55
4.89283e-55
-1.18284e-54
1.75914e-54
2.75495e-54
-3.72289e-53
1.95311e-52
-7.57779e-52
2.36283e-51
-5.82203e-51
9.82498e-51
-2.04944e-51
-6.1104e-50
2.68989e-49
-6.5617e-49
6.97103e-49
1.82429e-48
-1.10799e-47
2.5677e-47
-1.1711e-47
-1.28072e-46
4.53591e-46
-4.75764e-46
-1.54316e-45
6.84753e-45
-7.03778e-45
-2.54172e-44
9.6127e-44
-4.05166e-44
-4.89465e-43
1.07577e-42
1.12174e-42
-7.76755e-42
3.83162e-42
3.90605e-41
-6.20145e-41
-1.58697e-40
4.61361e-40
5.60923e-40
-2.7555e-39
-1.93121e-39
1.49408e-38
8.31756e-39
-7.67543e-38
-5.35877e-38
3.72141e-37
4.18229e-37
-1.61274e-36
-3.10967e-36
5.32234e-36
1.97078e-35
-4.50252e-36
-9.69104e-35
-1.04651e-34
2.90407e-34
9.1362e-34
2.40244e-34
-3.52141e-33
-7.69781e-33
-8.03682e-34
2.97527e-32
6.9731e-32
4.71785e-32
-1.49878e-31
-5.55616e-31
-9.28565e-31
-6.11689e-31
1.35096e-30
5.74774e-30
1.25507e-29
2.04932e-29
2.72746e-29
3.04511e-29
2.86049e-29
2.21184e-29
1.30647e-29
4.25511e-30
-2.01052e-30
-4.80201e-30
-4.63664e-30
-2.88226e-30
-9.39068e-31
3.37852e-31
7.6786e-31
6.19911e-31
2.78737e-31
1.06582e-32
-1.00018e-31
-9.31521e-32
-4.37338e-32
-2.79965e-33
1.22798e-32
6.94241e-59
-3.6131e-59
3.68628e-58
-1.5704e-57
6.91466e-57
-2.86403e-56
1.12013e-55
-4.08856e-55
1.36998e-54
-4.08927e-54
1.01685e-53
-1.67485e-53
-1.25744e-53
2.66887e-52
-1.47044e-51
5.81959e-51
-1.83653e-50
4.57148e-50
-7.83151e-50
2.0876e-50
4.68022e-49
-2.0962e-48
5.16445e-48
-5.61186e-48
-1.39248e-47
8.64997e-47
-2.02366e-46
9.70837e-47
9.95175e-46
-3.56195e-45
3.79493e-45
1.19729e-44
-5.37551e-44
5.60129e-44
1.97967e-43
-7.55665e-43
3.28072e-43
3.83141e-42
-8.47928e-42
-8.70449e-42
6.10216e-41
-3.06166e-41
-3.06343e-40
4.89091e-40
1.24305e-39
-3.63045e-39
-4.38876e-39
2.16651e-38
1.51035e-38
-1.17435e-37
-6.51585e-38
6.03203e-37
4.20983e-37
-2.92394e-36
-3.2901e-36
1.26633e-35
2.44651e-35
-4.17088e-35
-1.54946e-34
3.44854e-35
7.60755e-34
8.26655e-34
-2.27017e-33
-7.18227e-33
-1.95942e-33
2.75392e-32
6.05747e-32
7.19023e-33
-2.3208e-31
-5.47797e-31
-3.78518e-31
1.15506e-30
4.33459e-30
7.30073e-30
4.95541e-30
-1.01404e-29
-4.41408e-29
-9.68631e-29
-1.5849e-28
-2.11147e-28
-2.35837e-28
-2.21528e-28
-1.71185e-28
-1.00925e-28
-3.25982e-29
1.59339e-29
3.74669e-29
3.60513e-29
2.23387e-29
7.21355e-30
-2.69401e-30
-6.00334e-30
-4.82444e-30
-2.15701e-30
-7.05079e-32
7.85516e-31
7.26725e-31
3.39207e-31
2.0031e-32
-9.63601e-32
-5.39572e-58
2.83441e-58
-2.87896e-57
1.22938e-56
-5.42449e-56
2.25309e-55
-8.84396e-55
3.24432e-54
-1.0952e-53
3.30972e-53
-8.43859e-53
1.50641e-52
2.4758e-53
-1.83404e-51
1.0709e-50
-4.33208e-50
1.38473e-49
-3.48364e-49
6.06004e-49
-1.96796e-49
-3.47373e-48
1.58485e-47
-3.94524e-47
4.38584e-47
1.02955e-46
-6.55232e-46
1.54812e-45
-7.80517e-46
-7.50111e-45
2.71477e-44
-2.93914e-44
-9.00989e-44
4.09571e-43
-4.32866e-43
-1.49587e-42
5.76593e-42
-2.57968e-42
-2.91044e-41
6.48804e-41
6.55077e-41
-4.653e-40
2.37607e-40
2.33178e-39
-3.74486e-39
-9.44883e-39
2.77322e-38
3.33201e-38
-1.65352e-37
-1.14605e-37
8.95988e-37
4.95274e-37
-4.60159e-36
-3.20957e-36
2.23006e-35
2.51218e-35
-9.65194e-35
-1.86835e-34
3.17267e-34
1.18252e-33
-2.56095e-34
-5.7969e-33
-6.33925e-33
1.72236e-32
5.48091e-32
1.55093e-32
-2.09025e-31
-4.62732e-31
-6.17576e-32
1.75672e-30
4.17741e-30
2.94905e-30
-8.6309e-30
-3.28149e-29
-5.57228e-29
-3.89826e-29
7.35707e-29
3.28558e-28
7.24877e-28
1.18872e-27
1.58538e-27
1.77155e-27
1.66397e-27
1.28495e-27
7.56046e-28
2.41993e-28
-1.22617e-28
-2.83671e-28
-2.7195e-28
-1.67935e-28
-5.37089e-29
2.08607e-29
4.55506e-29
3.64286e-29
1.61892e-29
4.32728e-31
-5.98843e-30
-5.5016e-30
-2.55211e-30
-1.37182e-31
7.33959e-31
4.0645e-57
-2.15506e-57
2.17923e-56
-9.32763e-56
4.12421e-55
-1.71768e-54
6.76608e-54
-2.49402e-53
8.47865e-53
-2.59177e-52
6.75762e-52
-1.28777e-51
3.57939e-52
1.20268e-50
-7.53249e-50
3.12185e-49
-1.01164e-48
2.57345e-48
-4.54716e-48
1.74235e-48
2.49515e-47
-1.1612e-46
2.92201e-46
-3.32401e-46
-7.36335e-46
4.8104e-45
-1.14833e-44
6.07966e-45
5.47805e-44
-2.00595e-43
2.20787e-43
6.56831e-43
-3.02537e-42
3.24466e-42
1.09528e-41
-4.26566e-41
1.96775e-41
2.14306e-40
-4.81406e-40
-4.7755e-40
3.43998e-39
-1.78912e-39
-1.72066e-38
2.78077e-38
6.9623e-38
-2.05419e-37
-2.45189e-37
1.2237e-36
8.42774e-37
-6.62853e-36
-3.64851e-36
3.40379e-35
2.37203e-35
-1.64923e-34
-1.85977e-34
7.13347e-34
1.38347e-33
-2.34005e-33
-8.75085e-33
1.84189e-33
4.28302e-32
4.71423e-32
-1.26686e-31
-4.05571e-31
-1.19011e-31
1.5381e-30
3.42777e-30
5.09775e-31
-1.28896e-29
-3.08899e-29
-2.2288e-29
6.24559e-29
2.40804e-28
4.12425e-28
2.97475e-28
-5.15002e-28
-2.36734e-27
-5.25366e-27
-8.6363e-27
-1.15316e-26
-1.28919e-26
-1.21083e-26
-9.34347e-27
-5.48562e-27
-1.73849e-27
9.1524e-28
2.08181e-27
1.988e-27
1.22314e-27
3.87116e-28
-1.56694e-28
-3.35048e-28
-2.6658e-28
-1.17706e-28
-2.3909e-30
4.42673e-29
4.03708e-29
1.86046e-29
8.94445e-31
-5.42052e-30
-2.96366e-56
1.5861e-56
-1.59678e-55
6.85052e-55
-3.03512e-54
1.26746e-53
-5.00969e-53
1.85515e-52
-6.349e-52
1.96159e-51
-5.21863e-51
1.0499e-50
-6.54792e-51
-7.47886e-50
5.10789e-49
-2.17493e-48
7.15215e-48
-1.84065e-47
3.30458e-47
-1.46029e-47
-1.73198e-46
8.23457e-46
-2.09566e-45
2.44018e-45
5.08644e-45
-3.41848e-44
8.24891e-44
-4.58321e-44
-3.87118e-43
1.43523e-42
-1.60678e-42
-4.63276e-42
2.16393e-41
-2.35628e-41
-7.76141e-41
3.05603e-40
-1.45444e-40
-1.52775e-39
3.45971e-39
3.3678e-39
-2.46281e-38
1.30559e-38
1.22943e-37
-2.00018e-37
-4.96682e-37
1.47373e-36
1.74657e-36
-8.77075e-36
-5.99854e-36
4.74927e-35
2.60154e-35
-2.43846e-34
-1.69726e-34
1.18126e-33
1.33323e-33
-5.10615e-33
-9.9212e-33
1.67156e-32
6.27177e-32
-1.28144e-32
-3.06476e-31
-3.39569e-31
9.02319e-31
2.90666e-30
8.84315e-31
-1.09595e-29
-2.45939e-29
-4.04565e-30
9.15641e-29
2.21227e-28
1.63213e-28
-4.37102e-28
-1.7108e-27
-2.9566e-27
-2.19952e-27
3.47096e-27
1.64886e-26
3.6828e-26
6.06997e-26
8.11513e-26
9.07718e-26
8.52488e-26
6.5731e-26
3.85003e-26
1.20693e-26
-6.61867e-27
-1.4791e-26
-1.40657e-26
-8.62018e-27
-2.69732e-27
1.14044e-27
2.38622e-27
1.88828e-27
8.27985e-28
1.10758e-29
-3.1692e-28
-2.86799e-28
-1.31245e-28
-5.5097e-30
3.87695e-29
2.08883e-55
-1.12846e-55
1.13099e-54
-4.86345e-54
2.15908e-53
-9.03983e-53
3.58493e-52
-1.33347e-51
4.59272e-51
-1.43318e-50
3.88317e-50
-8.17879e-50
7.37344e-50
4.36976e-49
-3.33245e-48
1.46262e-47
-4.88635e-47
1.27295e-46
-2.3229e-46
1.16371e-46
1.15997e-45
-5.64406e-45
1.45349e-44
-1.73289e-44
-3.38783e-44
2.34832e-43
-5.73093e-43
3.33991e-43
2.64342e-42
-9.9302e-42
1.13139e-41
3.15686e-41
-1.49673e-40
1.65567e-40
5.31536e-40
-2.11745e-39
1.04041e-39
1.053e-38
-2.40511e-38
-2.29425e-38
1.70524e-37
-9.22219e-38
-8.49452e-37
1.39186e-36
3.42588e-36
-1.02272e-35
-1.20273e-35
6.08047e-35
4.12666e-35
-3.2913e-34
-1.79301e-34
1.68967e-33
1.17419e-33
-8.18379e-33
-9.2431e-33
3.53536e-32
6.88135e-32
-1.15494e-31
-4.34776e-31
8.6126e-32
2.12116e-30
2.36607e-30
-6.21518e-30
-2.01498e-29
-6.35475e-30
7.55186e-29
1.70694e-28
3.08668e-29
-6.28911e-28
-1.53254e-27
-1.15661e-27
2.95428e-27
1.17519e-26
2.05032e-26
1.57387e-26
-2.2467e-26
-1.10843e-25
-2.49334e-25
-4.12133e-25
-5.51751e-25
-6.17509e-25
-5.79896e-25
-4.46745e-25
-2.60999e-25
-8.08403e-26
4.63139e-26
1.01603e-25
9.61918e-26
5.8702e-26
1.81407e-26
-8.0324e-27
-1.64336e-26
-1.29293e-26
-5.62705e-27
-3.29266e-29
2.1946e-27
1.9699e-27
8.94726e-28
3.16822e-29
-2.682e-28
-1.42085e-54
7.74938e-55
-7.73168e-54
3.33249e-53
-1.48237e-52
6.22252e-52
-2.47569e-51
9.24847e-51
-3.20474e-50
1.00946e-49
-2.78108e-49
6.09265e-49
-6.88439e-49
-2.36368e-48
2.08675e-47
-9.47852e-47
3.22107e-46
-8.49947e-46
1.57705e-45
-8.83883e-46
-7.48219e-45
3.73333e-44
-9.73452e-44
1.18874e-43
2.1715e-43
-1.55702e-42
3.8452e-42
-2.34964e-42
-1.74147e-41
6.63428e-41
-7.69714e-41
-2.07495e-40
9.9965e-40
-1.1241e-39
-3.51262e-39
1.41685e-38
-7.1931e-39
-7.0067e-38
1.61503e-37
1.50728e-37
-1.14023e-36
6.29704e-37
5.66709e-36
-9.35699e-36
-2.28132e-35
6.85546e-35
7.99433e-35
-4.07151e-34
-2.73966e-34
2.20302e-33
1.1926e-33
-1.13085e-32
-7.84219e-33
5.47631e-32
6.1881e-32
-2.36433e-31
-4.60971e-31
7.70777e-31
2.91109e-30
-5.58422e-31
-1.41796e-29
-1.59253e-29
4.13421e-29
1.34923e-28
4.41015e-29
-5.02519e-28
-1.14439e-27
-2.26306e-28
4.17063e-27
1.02548e-26
7.92079e-27
-1.92522e-26
-7.79386e-26
-1.37347e-25
-1.08839e-25
1.39246e-25
7.17923e-25
1.62769e-24
2.69895e-24
3.6187e-24
4.05247e-24
3.80534e-24
2.92884e-24
1.70629e-24
5.21474e-25
-3.13152e-25
-6.73811e-25
-6.34882e-25
-3.85672e-25
-1.1756e-25
5.46727e-26
1.09282e-25
8.54484e-26
3.68891e-26
-8.66689e-29
-1.46785e-26
-1.30627e-26
-5.88542e-27
-1.66573e-28
1.79196e-27
9.31108e-54
-5.12788e-54
5.09262e-53
-2.20015e-52
9.80617e-52
-4.12681e-51
1.64713e-50
-6.17898e-50
2.15361e-49
-6.84377e-49
1.91455e-48
-4.34031e-48
5.7347e-48
1.15214e-47
-1.25068e-46
5.90806e-46
-2.0452e-45
5.47002e-45
-1.03242e-44
6.40578e-45
4.6389e-44
-2.37911e-43
6.28522e-43
-7.8647e-43
-1.33649e-42
9.94754e-42
-2.48757e-41
1.59341e-41
1.10493e-40
-4.27288e-40
5.05164e-40
1.31317e-39
-6.43646e-39
7.36283e-39
2.23608e-38
-9.14094e-38
4.79935e-38
4.49359e-37
-1.0459e-36
-9.53256e-37
7.35113e-36
-4.15024e-36
-3.64471e-35
6.06758e-35
1.46421e-34
-4.4318e-34
-5.12034e-34
2.62909e-33
1.75221e-33
-1.42199e-32
-7.64207e-33
7.29859e-32
5.04796e-32
-3.53399e-31
-3.99411e-31
1.52489e-30
2.97763e-30
-4.96086e-30
-1.87965e-29
3.48757e-30
9.14083e-29
1.03378e-28
-2.65152e-28
-8.71272e-28
-2.95118e-28
3.22405e-27
7.39967e-27
1.59317e-27
-2.66604e-26
-6.61766e-26
-5.23409e-26
1.2075e-25
4.98241e-25
8.87392e-25
7.26318e-25
-8.23269e-25
-4.47148e-24
-1.02273e-23
-1.70175e-23
-2.28543e-23
-2.56111e-23
-2.40472e-23
-1.84894e-23
-1.07383e-23
-3.23302e-24
2.04287e-24
4.30708e-24
4.03743e-24
2.44045e-24
7.32676e-25
-3.59077e-25
-7.00581e-25
-5.44179e-25
-2.32875e-25
2.63862e-27
9.46782e-26
8.34906e-26
3.72918e-26
7.6754e-28
-1.15456e-26
-5.86668e-53
3.26338e-53
-3.22562e-52
1.39687e-51
-6.23823e-51
2.63194e-50
-1.05378e-49
3.96927e-49
-1.39122e-48
4.45812e-48
-1.26491e-47
2.95521e-47
-4.38575e-47
-4.76557e-47
7.15038e-46
-3.53436e-45
1.24838e-44
-3.38683e-44
6.50544e-44
-4.43058e-44
-2.75803e-43
1.45787e-42
-3.90511e-42
5.00948e-42
7.87821e-42
-6.11222e-41
1.54885e-40
-1.0399e-40
-6.73861e-40
2.64817e-39
-3.19276e-39
-7.98595e-39
3.98796e-38
-4.6446e-38
-1.36854e-37
5.67587e-37
-3.08524e-37
-2.77244e-36
6.52078e-36
5.79139e-36
-4.56134e-35
2.63593e-35
2.25557e-34
-3.78866e-34
-9.04109e-34
2.7582e-33
3.15422e-33
-1.63428e-32
-1.07749e-32
8.8356e-32
4.70845e-32
-4.53463e-31
-3.12575e-31
2.19547e-30
2.48093e-30
-9.46829e-30
-1.85136e-29
3.07396e-29
1.16833e-28
-2.09463e-29
-5.6726e-28
-6.46063e-28
1.63682e-27
5.4165e-27
1.90094e-27
-1.99084e-26
-4.60661e-26
-1.07575e-26
1.63988e-25
4.11138e-25
3.33172e-25
-7.27436e-25
-3.0647e-24
-5.52025e-24
-4.66958e-24
4.6209e-24
2.67215e-23
6.1726e-23
1.03105e-22
1.38722e-22
1.5557e-22
1.46057e-22
1.12173e-22
6.49255e-23
1.92193e-23
-1.28359e-23
-2.64885e-23
-2.46926e-23
-1.48448e-23
-4.38187e-24
2.27177e-24
4.32206e-24
3.33341e-24
1.41288e-24
-2.99833e-26
-5.87895e-25
-5.13426e-25
-2.27182e-25
-2.76149e-27
7.16075e-26
3.54596e-52
-1.99302e-52
1.96029e-51
-8.50969e-51
3.80792e-50
-1.61065e-49
6.46881e-49
-2.44636e-48
8.6211e-48
-2.78466e-47
8.00539e-47
-1.92102e-46
3.12082e-46
1.37195e-46
-3.88346e-45
2.02426e-44
-7.30933e-44
2.01321e-43
-3.93739e-43
2.92307e-43
1.56826e-42
-8.57161e-42
2.32999e-41
-3.06585e-41
-4.43428e-41
3.60424e-40
-9.26265e-40
6.51915e-40
3.94136e-39
-1.57607e-38
1.93948e-38
4.65608e-38
-2.37284e-37
2.81627e-37
8.03502e-37
-3.38508e-36
1.90737e-36
1.64214e-35
-3.90619e-35
-3.37191e-35
2.7185e-34
-1.61038e-34
-1.34044e-33
2.27357e-33
5.35952e-33
-1.64937e-32
-1.86476e-32
9.76016e-32
6.35629e-32
-5.27446e-31
-2.78305e-31
2.70681e-30
1.8579e-30
-1.31045e-29
-1.47996e-29
5.64886e-29
1.10577e-28
-1.83028e-28
-6.97688e-28
1.20769e-28
3.38221e-27
3.87947e-27
-9.70649e-27
-3.2354e-26
-1.17631e-26
1.18087e-25
2.75571e-25
6.95717e-26
-9.68644e-25
-2.45432e-24
-2.03905e-24
4.19956e-24
1.8102e-23
3.29996e-23
2.88691e-23
-2.44637e-23
-1.52825e-22
-3.57014e-22
-5.98931e-22
-8.07454e-22
-9.06273e-22
-8.50765e-22
-6.52574e-22
-3.76267e-22
-1.09255e-22
7.7533e-23
1.56415e-22
1.44933e-22
8.66135e-23
2.50845e-23
-1.3819e-23
-2.56079e-23
-1.95994e-23
-8.22041e-24
2.64563e-25
3.50735e-24
3.03159e-24
1.32781e-24
3.86163e-27
-4.26683e-25
-2.05055e-51
1.16513e-51
-1.1401e-50
4.96158e-50
-2.22472e-49
9.43404e-49
-3.80072e-48
1.44303e-47
-5.11222e-47
1.66389e-46
-4.84246e-46
1.19029e-45
-2.0798e-45
8.33904e-47
1.99312e-44
-1.1068e-43
4.09478e-43
-1.14611e-42
2.28366e-42
-1.83748e-42
-8.50168e-42
4.82356e-41
-1.33184e-40
1.79877e-40
2.37447e-40
-2.03467e-39
5.30812e-39
-3.9174e-39
-2.20519e-38
8.98646e-38
-1.12987e-37
-2.59568e-37
1.35263e-36
-1.63784e-36
-4.51408e-36
1.93464e-35
-1.13168e-35
-9.31526e-35
2.24324e-34
1.8762e-34
-1.55262e-33
9.44419e-34
7.63165e-33
-1.30837e-32
-3.04285e-32
9.45574e-32
1.0554e-31
-5.5876e-31
-3.58788e-31
3.0182e-30
1.57402e-30
-1.54887e-29
-1.05743e-29
7.49866e-29
8.45881e-29
-3.23109e-28
-6.32997e-28
1.04489e-27
3.99384e-27
-6.67194e-28
-1.93321e-26
-2.23326e-26
5.51721e-26
1.85276e-25
6.97733e-26
-6.7132e-25
-1.58055e-24
-4.30192e-25
5.48202e-24
1.40468e-23
1.19727e-23
-2.31721e-23
-1.02438e-22
-1.89154e-22
-1.71272e-22
1.21034e-22
8.33971e-22
1.97356e-21
3.32707e-21
4.49562e-21
5.05045e-21
4.74057e-21
3.63112e-21
2.08468e-21
5.91994e-22
-4.4925e-22
-8.84796e-22
-8.14461e-22
-4.83536e-22
-1.37047e-22
8.06488e-23
1.45385e-22
1.10352e-22
4.57497e-23
-2.03239e-24
-2.00598e-23
-1.71481e-23
-7.42744e-24
5.42392e-26
2.43718e-24
1.13094e-50
-6.50106e-51
6.3264e-50
-2.76039e-49
1.24031e-48
-5.27328e-48
2.1311e-47
-8.12297e-47
2.89267e-46
-9.48422e-46
2.7923e-45
-7.01466e-45
1.30179e-44
-5.34791e-45
-9.59968e-44
5.75782e-43
-2.1884e-42
6.23141e-42
-1.26581e-41
1.09868e-41
4.37738e-41
-2.59045e-40
7.27347e-40
-1.0091e-39
-1.20418e-39
1.09648e-38
-2.90709e-38
2.25089e-38
1.17668e-37
-4.8956e-37
6.29643e-37
1.3793e-36
-7.36739e-36
9.11278e-36
2.41947e-35
-1.05675e-34
6.42873e-35
5.0468e-34
-1.23182e-33
-9.94389e-34
8.47528e-33
-5.30433e-33
-4.15144e-32
7.20228e-32
1.64998e-31
-5.18376e-31
-5.70192e-31
3.05854e-30
1.93196e-30
-1.65131e-29
-8.49231e-30
8.47421e-29
5.74645e-29
-4.10305e-28
-4.61971e-28
1.76744e-27
3.46388e-27
-5.70541e-27
-2.18593e-26
3.52486e-27
1.0566e-25
1.22929e-25
-2.9983e-25
-1.01458e-24
-3.95688e-25
3.64847e-24
8.66986e-24
2.5379e-24
-2.96492e-23
-7.68832e-23
-6.72814e-23
1.21827e-22
5.53928e-22
1.03704e-21
9.72769e-22
-5.51612e-22
-4.32692e-21
-1.03945e-20
-1.76213e-20
-2.38715e-20
-2.68455e-20
-2.5195e-20
-1.92679e-20
-1.10081e-20
-3.0457e-21
2.49095e-21
4.78187e-21
4.36999e-21
2.57546e-21
7.12094e-22
-4.50471e-22
-7.88851e-22
-5.93363e-22
-2.4284e-22
1.4136e-23
1.09707e-22
9.26747e-23
3.96518e-23
-7.39896e-25
-1.33106e-23
-5.92651e-50
3.44994e-50
-3.33723e-49
1.46017e-48
-6.57514e-48
2.80298e-47
-1.13638e-46
4.34855e-46
-1.55652e-45
5.13989e-45
-1.52996e-44
3.92091e-44
-7.65679e-44
5.41174e-44
4.29725e-43
-2.83841e-42
1.11186e-41
-3.22502e-41
6.68392e-41
-6.23428e-41
-2.13074e-40
1.32313e-39
-3.78288e-39
5.39639e-39
5.75028e-39
-5.62173e-38
1.51679e-37
-1.23319e-37
-5.96666e-37
2.54007e-36
-3.34661e-36
-6.96029e-36
3.82202e-35
-4.83672e-35
-1.23286e-34
5.49967e-34
-3.48711e-34
-2.6029e-33
6.44871e-33
5.00005e-33
-4.40811e-32
2.84553e-32
2.15086e-31
-3.78151e-31
-8.51732e-31
2.70945e-30
2.93057e-30
-1.59598e-29
-9.88806e-30
8.61236e-29
4.35491e-29
-4.41996e-28
-2.97162e-28
2.14047e-27
2.40319e-27
-9.21884e-27
-1.80643e-26
2.97115e-26
1.14052e-25
-1.77716e-26
-5.50573e-25
-6.45069e-25
1.55334e-24
5.2972e-24
2.13903e-24
-1.89001e-23
-4.53491e-23
-1.42479e-23
1.52783e-22
4.01257e-22
3.60839e-22
-6.08084e-22
-2.85357e-21
-5.42238e-21
-5.27486e-21
2.25839e-21
2.12517e-20
5.19677e-20
8.86671e-20
1.20471e-19
1.3564e-19
1.27281e-19
9.71625e-20
5.51997e-20
1.4807e-20
-1.31791e-20
-2.4615e-20
-2.23152e-20
-1.30436e-20
-3.50406e-21
2.40138e-21
4.07834e-21
3.03733e-21
1.22516e-21
-9.05421e-23
-5.72042e-22
-4.77059e-22
-2.01363e-22
6.32314e-24
6.93029e-23
2.93713e-49
-1.7338e-49
1.66606e-48
-7.31162e-48
3.29998e-47
-1.41074e-46
5.73818e-46
-2.20465e-45
7.93192e-45
-2.63768e-44
7.9345e-44
-2.07131e-43
4.22654e-43
-4.01338e-43
-1.76216e-42
1.31937e-41
-5.34782e-41
1.58248e-40
-3.34936e-40
3.34701e-40
9.74759e-40
-6.4011e-39
1.86649e-38
-2.74107e-38
-2.56574e-38
2.73117e-37
-7.5112e-37
6.42056e-37
2.86269e-36
-1.25042e-35
1.69063e-35
3.32023e-35
-1.88139e-34
2.44053e-34
5.947e-34
-2.71702e-33
1.8004e-33
1.27299e-32
-3.20709e-32
-2.37342e-32
2.17655e-31
-1.45349e-31
-1.05735e-30
1.88728e-30
4.16927e-30
-1.34551e-29
-1.42699e-29
7.91102e-29
4.7891e-29
-4.26672e-28
-2.11316e-28
2.19001e-27
1.45632e-27
-1.06091e-26
-1.18628e-26
4.56939e-26
8.9455e-26
-1.47074e-25
-5.65264e-25
8.53291e-26
2.72577e-24
3.21549e-24
-7.64545e-24
-2.6278e-23
-1.09835e-23
9.29994e-23
2.25414e-22
7.58808e-23
-7.47458e-22
-1.99003e-21
-1.84081e-21
2.86892e-21
1.39543e-20
2.69479e-20
2.7221e-20
-7.87907e-21
-9.82729e-20
-2.45513e-19
-4.22069e-19
-5.7542e-19
-6.48759e-19
-6.08676e-19
-4.63671e-19
-2.61699e-19
-6.76082e-20
6.63133e-20
1.20244e-19
1.08037e-19
6.25616e-20
1.62439e-20
-1.21771e-20
-2.00185e-20
-1.47455e-20
-5.85085e-21
5.38198e-22
2.83398e-21
2.3306e-21
9.68922e-22
-4.44215e-23
-3.42796e-22
-1.36842e-48
8.20771e-49
-7.8274e-48
3.44661e-47
-1.55945e-46
6.68674e-46
-2.72928e-45
1.05298e-44
-3.80829e-44
1.27529e-43
-3.87568e-43
1.02942e-42
-2.18323e-42
2.51833e-42
6.4618e-42
-5.7465e-41
2.42234e-40
-7.32622e-40
1.58537e-39
-1.69358e-39
-4.1587e-39
2.91823e-38
-8.69571e-38
1.3167e-37
1.05811e-37
-1.25104e-36
3.51422e-36
-3.16401e-36
-1.29249e-35
5.81341e-35
-8.08375e-35
-1.48861e-34
8.7473e-34
-1.16592e-33
-2.70131e-33
1.26852e-32
-8.8146e-33
-5.87556e-32
1.50874e-31
1.05678e-31
-1.01572e-30
7.04332e-31
4.90944e-30
-8.91689e-30
-1.92607e-29
6.32175e-29
6.54947e-29
-3.70925e-28
-2.18277e-28
1.99941e-27
9.64801e-28
-1.02648e-26
-6.72966e-27
4.97515e-26
5.531e-26
-2.14342e-25
-4.18801e-25
6.89275e-25
2.64997e-24
-3.89368e-25
-1.27681e-23
-1.51602e-23
3.56056e-23
1.23342e-22
5.33413e-23
-4.32868e-22
-1.06037e-21
-3.81901e-22
3.45703e-21
9.34017e-21
8.89743e-21
-1.27251e-20
-6.44972e-20
-1.26776e-19
-1.33181e-19
2.0022e-20
4.24858e-19
1.08988e-18
1.89065e-18
2.58799e-18
2.92252e-18
2.7414e-18
2.08317e-18
1.16664e-18
2.87569e-19
-3.16073e-19
-5.54975e-19
-4.93608e-19
-2.82773e-19
-7.04626e-20
5.85067e-20
9.28897e-20
6.75857e-20
2.63146e-20
-2.97769e-21
-1.32841e-20
-1.07583e-20
-4.39664e-21
2.74494e-22
1.60411e-21
5.94623e-48
-3.63458e-48
3.43515e-47
-1.51842e-46
6.88944e-46
-2.96396e-45
1.21434e-44
-4.70583e-44
1.71124e-43
-5.77136e-43
1.77178e-42
-4.78432e-42
1.0504e-41
-1.39564e-41
-2.02088e-41
2.32601e-40
-1.02643e-39
3.18024e-39
-7.04674e-39
8.03649e-39
1.63701e-38
-1.24558e-37
3.80265e-37
-5.94895e-37
-3.96639e-37
5.36886e-36
-1.54456e-35
1.46854e-35
5.45322e-35
-2.53772e-34
3.63965e-34
6.22574e-34
-3.81924e-33
5.24703e-33
1.14758e-32
-5.56589e-32
4.07376e-32
2.54397e-31
-6.67874e-31
-4.37593e-31
4.45526e-30
-3.22351e-30
-2.14069e-29
3.96851e-29
8.34671e-29
-2.7957e-28
-2.81497e-28
1.63651e-27
9.29436e-28
-8.81594e-27
-4.11428e-27
4.52762e-26
2.9133e-26
-2.19614e-25
-2.42173e-25
9.46768e-25
1.84362e-24
-3.04368e-24
-1.16895e-23
1.6854e-24
5.63001e-23
6.72464e-23
-1.56117e-22
-5.44978e-22
-2.43714e-22
1.89619e-21
4.69664e-21
1.80773e-21
-1.5037e-20
-4.1278e-20
-4.05495e-20
5.26992e-20
2.80278e-19
5.6179e-19
6.14935e-19
-6.12878e-21
-1.70088e-18
-4.51322e-18
-7.91641e-18
-1.08891e-17
-1.23204e-17
-1.1554e-17
-8.7538e-18
-4.85622e-18
-1.12642e-18
1.42017e-18
2.40692e-18
2.11602e-18
1.197e-18
2.83428e-19
-2.65069e-19
-4.05309e-19
-2.9082e-19
-1.10752e-19
1.53326e-20
5.86165e-20
4.66705e-20
1.87023e-20
-1.52966e-21
-7.0651e-21
-2.38302e-47
1.49134e-47
-1.39383e-46
6.18985e-46
-2.81767e-45
1.21688e-44
-5.00678e-44
1.94976e-43
-7.13192e-43
2.42331e-42
-7.51621e-42
2.06251e-41
-4.67423e-41
6.93093e-41
4.7541e-41
-8.65076e-40
4.03264e-39
-1.28387e-38
2.91873e-38
-3.5528e-38
-5.85103e-38
4.93466e-37
-1.54883e-36
2.51047e-36
1.31309e-36
-2.14063e-35
6.33016e-35
-6.37986e-35
-2.12976e-34
1.03232e-33
-1.53303e-33
-2.40377e-33
1.55434e-32
-2.21031e-32
-4.51789e-32
2.27868e-31
-1.76725e-31
-1.02517e-30
2.7634e-30
1.66458e-30
-1.82381e-29
1.38575e-29
8.70069e-29
-1.65327e-28
-3.36634e-28
1.15611e-27
1.12314e-27
-6.74901e-27
-3.66063e-27
3.63333e-26
1.62212e-26
-1.86699e-25
-1.17134e-25
9.06614e-25
9.8829e-25
-3.91307e-24
-7.57826e-24
1.25874e-23
4.81979e-23
-6.90968e-24
-2.32187e-22
-2.78728e-22
6.40462e-22
2.25205e-21
1.0405e-21
-7.76745e-21
-1.94623e-20
-7.99874e-21
6.11085e-20
1.70684e-19
1.73199e-19
-2.01928e-19
-1.13746e-18
-2.33036e-18
-2.66428e-18
-3.5393e-19
6.21895e-18
1.72636e-17
3.07091e-17
4.24971e-17
4.81971e-17
4.51853e-17
3.4109e-17
1.86989e-17
3.99246e-18
-5.97886e-18
-9.74107e-18
-8.44804e-18
-4.70711e-18
-1.04361e-18
1.12561e-18
1.6518e-18
1.16634e-18
4.32572e-19
-7.32929e-20
-2.4191e-19
-1.8896e-19
-7.40069e-20
7.76076e-21
2.90983e-20
8.65867e-47
-5.59229e-47
5.14947e-46
-2.30067e-45
1.05157e-44
-4.56291e-44
1.88697e-43
-7.39043e-43
2.72135e-42
-9.32253e-42
2.92302e-41
-8.1522e-41
1.90381e-40
-3.08857e-40
-3.85269e-41
2.90686e-39
-1.45057e-38
4.76548e-38
-1.11472e-37
1.45014e-37
1.84917e-37
-1.79264e-36
5.81352e-36
-9.80315e-36
-3.61404e-36
7.83726e-35
-2.39493e-34
2.57317e-34
7.59513e-34
-3.8733e-33
5.98879e-33
8.43783e-33
-5.83678e-32
8.64272e-32
1.62683e-31
-8.62088e-31
7.14449e-31
3.80357e-30
-1.05926e-29
-5.70666e-30
6.90174e-29
-5.55655e-29
-3.26324e-28
6.39427e-28
1.24988e-27
-4.43218e-27
-4.109e-27
2.57891e-26
1.3142e-26
-1.38736e-25
-5.82476e-26
7.1348e-25
4.32099e-25
-3.47048e-24
-3.72072e-24
1.50086e-23
2.88175e-23
-4.83752e-23
-1.84124e-22
2.68046e-23
8.88055e-22
1.06981e-21
-2.43856e-21
-8.6299e-21
-4.11347e-21
2.9506e-20
7.48211e-20
3.28177e-20
-2.30026e-19
-6.5488e-19
-6.87915e-19
7.06858e-19
4.27306e-18
8.97533e-18
1.07523e-17
3.00892e-18
-2.03156e-17
-6.01436e-17
-1.08995e-16
-1.52021e-16
-1.72936e-16
-1.62066e-16
-1.21763e-16
-6.57221e-17
-1.24229e-17
2.33986e-17
3.64497e-17
3.10989e-17
1.70062e-17
3.44786e-18
-4.44537e-18
-6.23172e-18
-4.31778e-18
-1.54991e-18
3.23667e-19
9.2587e-19
7.07539e-19
2.69616e-19
-3.59079e-20
-1.11117e-19
-2.76978e-46
1.87456e-46
-1.6889e-45
7.61116e-45
-3.49847e-44
1.52774e-43
-6.36028e-43
2.50922e-42
-9.31541e-42
3.22209e-41
-1.02267e-40
2.90197e-40
-6.98192e-40
1.22455e-39
-3.88566e-40
-8.58485e-39
4.68575e-38
-1.59875e-37
3.86524e-37
-5.39441e-37
-4.90474e-37
5.86196e-36
-1.97968e-35
3.49534e-35
6.87608e-36
-2.58874e-34
8.24351e-34
-9.52728e-34
-2.42068e-33
1.32049e-32
-2.14387e-32
-2.62612e-32
1.99283e-31
-3.10089e-31
-5.24955e-31
2.9726e-30
-2.66572e-30
-1.27868e-29
3.71509e-29
1.70437e-29
-2.38185e-28
2.05897e-28
1.11301e-27
-2.27015e-27
-4.20396e-27
1.55643e-26
1.35258e-26
-9.01944e-26
-4.19964e-26
4.84826e-25
1.85858e-25
-2.49648e-24
-1.43537e-24
1.2174e-23
1.27313e-23
-5.28178e-23
-1.00046e-22
1.70956e-22
6.43734e-22
-9.83644e-23
-3.11344e-21
-3.75404e-21
8.52287e-21
3.03065e-20
1.48668e-20
-1.02751e-19