/*--------------------------------*- C++ -*----------------------------------*\
  =========                 |
  \\      /  F ield         | OpenFOAM: The Open Source CFD Toolbox
   \\    /   O peration     | Website:  https://openfoam.org
    \\  /    A nd           | Version:  13
     \\/     M anipulation  |
\*---------------------------------------------------------------------------*/
FoamFile
{
    format      ascii;
    class       volScalarField;
    location    "8.4";
    object      T;
}
// * * * * * * * * * * * * * * * * * * * * * * * * * * * * * * * * * * * * * //

dimensions      [0 0 0 1 0 0 0];

internalField   nonuniform List<scalar> 
10000
(
-1.81929e-29
1.40179e-28
3.70844e-28
1.60138e-28
-1.46008e-27
-4.19677e-27
-2.80809e-27
1.33314e-26
4.45326e-26
4.35005e-26
-9.98962e-26
-4.31956e-25
-5.83907e-25
4.93577e-25
3.68639e-24
6.72504e-24
7.42736e-25
-2.58433e-23
-6.52301e-23
-5.44644e-23
1.24118e-22
5.1127e-22
7.70946e-22
-3.38973e-23
-2.91968e-21
-7.02433e-21
-6.84083e-21
7.76625e-21
4.26909e-20
7.92199e-20
5.42937e-20
-1.23952e-19
-4.82605e-19
-8.13134e-19
-5.40072e-19
1.11476e-18
4.40649e-18
7.83075e-18
7.12736e-18
-3.9627e-18
-2.96127e-17
-6.44223e-17
-8.56725e-17
-5.20998e-17
8.28297e-17
3.39383e-16
6.68334e-16
9.1545e-16
8.20599e-16
7.25736e-17
-1.58129e-15
-4.20255e-15
-7.56242e-15
-1.11329e-14
-1.41961e-14
-1.60479e-14
-1.6226e-14
-1.46695e-14
-1.17446e-14
-8.12226e-15
-4.55945e-15
-1.67211e-15
2.15127e-16
1.09836e-15
1.21399e-15
9.00792e-16
4.68261e-16
1.16793e-16
-7.77944e-17
-1.31895e-16
-1.03711e-16
-5.08838e-17
-8.79587e-18
1.14894e-17
1.43432e-17
8.98772e-18
2.67319e-18
-1.38262e-18
-3.00151e-18
-3.21859e-18
-3.00103e-18
-2.82046e-18
-2.76316e-18
-2.76978e-18
-2.7844e-18
-2.78962e-18
-2.78896e-18
-2.78775e-18
-2.78746e-18
-2.7876e-18
-2.78768e-18
-2.78768e-18
-2.78766e-18
-2.78766e-18
-2.78766e-18
-2.78766e-18
-2.78766e-18
-2.78766e-18
-2.78766e-18
-2.78766e-18
1.40179e-28
6.41959e-28
3.84982e-28
-2.28459e-27
-7.16372e-27
-5.48718e-27
2.15145e-26
7.57447e-26
7.62096e-26
-1.68864e-25
-7.37231e-25
-9.73958e-25
9.40628e-25
6.39801e-24
1.10576e-23
-6.29673e-25
-4.68629e-23
-1.08295e-22
-7.05027e-23
2.55658e-22
8.79182e-22
1.13074e-21
-5.61971e-22
-5.46995e-21
-1.11089e-20
-7.45427e-21
2.04324e-20
7.46083e-20
1.12453e-19
2.89262e-20
-2.899e-19
-7.96415e-19
-1.05028e-18
-1.65755e-19
2.69505e-18
7.09292e-18
9.82005e-18
4.57702e-18
-1.52584e-17
-4.98597e-17
-8.42638e-17
-8.37602e-17
-1.36561e-18
1.97641e-16
4.98113e-16
7.99755e-16
9.06236e-16
5.55895e-16
-5.06011e-16
-2.43556e-15
-5.21492e-15
-8.62558e-15
-1.22814e-14
-1.57069e-14
-1.843e-14
-2.00639e-14
-2.03637e-14
-1.92623e-14
-1.6889e-14
-1.35649e-14
-9.7627e-15
-6.02275e-15
-2.83658e-15
-5.33829e-16
7.85256e-16
1.24435e-15
1.11656e-15
7.15303e-16
2.96141e-16
3.72694e-18
-1.27816e-16
-1.37136e-16
-8.75101e-17
-3.08761e-17
6.71481e-18
2.1848e-17
2.25683e-17
1.821e-17
1.43752e-17
1.26283e-17
1.23647e-17
1.26047e-17
1.28036e-17
1.28585e-17
1.28439e-17
1.28261e-17
1.28217e-17
1.28235e-17
1.2825e-17
1.28251e-17
1.28248e-17
1.28248e-17
1.28248e-17
1.28248e-17
1.28248e-17
1.28248e-17
1.28248e-17
1.28248e-17
1.28248e-17
1.28248e-17
3.70844e-28
3.84981e-28
-1.45269e-27
-5.2378e-27
-4.9116e-27
1.42804e-26
5.6897e-26
6.43107e-26
-1.17383e-25
-5.71641e-25
-8.00785e-25
6.94459e-25
5.17496e-24
9.1289e-24
-7.46985e-25
-4.03762e-23
-9.22326e-23
-5.26594e-23
2.47303e-22
7.9598e-22
9.2672e-22
-8.50099e-22
-5.52771e-21
-1.00516e-20
-3.88391e-21
2.67356e-20
7.78768e-20
9.47675e-20
-3.63492e-20
-4.03753e-19
-8.56364e-19
-7.75204e-19
8.18813e-19
4.37914e-18
8.15731e-18
6.85406e-18
-6.99071e-18
-3.64963e-17
-6.9556e-17
-7.05543e-17
1.24069e-17
2.13182e-16
4.89281e-16
6.69123e-16
4.57924e-16
-4.47647e-16
-2.13265e-15
-4.20375e-15
-5.64982e-15
-4.98428e-15
-7.31111e-16
7.86821e-15
2.02269e-14
3.42175e-14
4.66218e-14
5.41439e-14
5.4601e-14
4.77717e-14
3.55049e-14
2.1031e-14
7.78833e-15
-1.7148e-15
-6.54158e-15
-7.2841e-15
-5.47862e-15
-2.82883e-15
-5.93013e-16
6.68549e-16
9.99288e-16
7.62804e-16
3.55649e-16
3.55351e-17
-1.13043e-16
-1.23611e-16
-6.97956e-17
-1.08098e-17
2.67877e-17
4.19497e-17
4.40986e-17
4.20909e-17
4.03511e-17
3.97616e-17
3.9803e-17
3.99432e-17
3.99999e-17
3.99968e-17
3.99849e-17
3.99812e-17
3.99822e-17
3.99832e-17
3.99832e-17
3.99831e-17
3.9983e-17
3.99831e-17
3.99831e-17
3.99831e-17
3.99831e-17
3.99831e-17
3.99831e-17
3.99831e-17
1.60138e-28
-2.28459e-27
-5.23781e-27
-7.54473e-28
2.40788e-26
5.98774e-26
2.44624e-26
-2.26161e-25
-6.45538e-25
-4.78779e-25
1.79994e-24
6.3989e-24
7.23196e-24
-1.06221e-23
-5.62594e-23
-8.94862e-23
1.96571e-23
4.13367e-22
9.14549e-22
5.63606e-22
-2.21136e-21
-7.52251e-21
-9.89236e-21
3.94123e-21
4.58609e-20
9.79548e-20
7.75936e-20
-1.5072e-19
-6.3726e-19
-1.06639e-18
-5.31144e-19
2.14959e-18
7.04548e-18
1.08302e-17
5.38001e-18
-1.92539e-17
-6.43224e-17
-1.05934e-16
-8.3829e-17
8.4191e-17
4.42981e-16
8.98987e-16
1.12398e-15
5.55504e-16
-1.40457e-15
-4.95477e-15
-9.32311e-15
-1.23252e-14
-1.04024e-14
6.01787e-16
2.39627e-14
6.03316e-14
1.06468e-13
1.55182e-13
1.96817e-13
2.21962e-13
2.24445e-13
2.03441e-13
1.63806e-13
1.14483e-13
6.56313e-14
2.56178e-14
-1.01377e-15
-1.39986e-14
-1.63492e-14
-1.25569e-14
-6.83042e-15
-1.98444e-15
8.2652e-16
1.72195e-15
1.43873e-15
7.54223e-16
1.71671e-16
-1.30466e-16
-1.92242e-16
-1.31961e-16
-4.97072e-17
6.29655e-18
3.00364e-17
3.40357e-17
3.13602e-17
2.88357e-17
2.79531e-17
2.80036e-17
2.82047e-17
2.82849e-17
2.82792e-17
2.82621e-17
2.82574e-17
2.82591e-17
2.82604e-17
2.82604e-17
2.82601e-17
2.82601e-17
2.82601e-17
2.82602e-17
2.82601e-17
2.82601e-17
2.82601e-17
2.82601e-17
-1.46008e-27
-7.16372e-27
-4.91161e-27
2.40788e-26
7.97316e-26
6.77446e-26
-2.23851e-25
-8.386e-25
-9.11866e-25
1.70906e-24
8.09775e-24
1.1361e-23
-8.75613e-24
-6.94533e-23
-1.26355e-22
-8.321e-24
4.98945e-22
1.21501e-21
9.0044e-22
-2.60735e-21
-9.67272e-21
-1.32429e-20
4.23896e-21
5.84991e-20
1.25364e-19
9.58229e-20
-2.02391e-19
-8.14864e-19
-1.30041e-18
-4.93831e-19
2.96933e-18
8.79744e-18
1.23537e-17
3.68786e-18
-2.75137e-17
-7.84159e-17
-1.15378e-16
-6.75326e-17
1.4606e-16
5.42305e-16
9.7144e-16
1.04965e-15
2.20072e-16
-1.9882e-15
-5.52607e-15
-9.37067e-15
-1.13034e-14
-8.15132e-15
3.44247e-15
2.59034e-14
5.9652e-14
1.02494e-13
1.49731e-13
1.94982e-13
2.31451e-13
2.53297e-13
2.56799e-13
2.41129e-13
2.08591e-13
1.64267e-13
1.15048e-13
6.81804e-14
2.9672e-14
3.0223e-15
-1.12916e-14
-1.54164e-14
-1.30111e-14
-7.89447e-15
-2.96655e-15
2.74782e-16
1.60729e-15
1.58061e-15
9.52465e-16
3.01654e-16
-1.05185e-16
-2.53654e-16
-2.46509e-16
-1.90645e-16
-1.4607e-16
-1.26988e-16
-1.24697e-16
-1.27674e-16
-1.29923e-16
-1.3049e-16
-1.30301e-16
-1.301e-16
-1.30055e-16
-1.30076e-16
-1.30092e-16
-1.30093e-16
-1.3009e-16
-1.3009e-16
-1.3009e-16
-1.3009e-16
-1.3009e-16
-1.3009e-16
-1.3009e-16
-1.3009e-16
-1.3009e-16
-1.3009e-16
-4.19677e-27
-5.48718e-27
1.42804e-26
5.98774e-26
6.77446e-26
-1.35822e-25
-6.41719e-25
-8.45843e-25
1.03731e-24
6.32388e-24
1.00496e-23
-4.83778e-24
-5.57115e-23
-1.0972e-22
-1.93567e-23
4.17065e-22
1.06415e-21
8.10551e-22
-2.35945e-21
-8.79907e-21
-1.17154e-20
5.79659e-21
5.78732e-20
1.16661e-19
6.85388e-20
-2.52377e-19
-8.45311e-19
-1.16052e-18
6.67571e-20
4.00991e-18
9.44996e-18
1.00146e-17
-5.36214e-18
-4.36793e-17
-8.96865e-17
-8.89633e-17
4.23052e-17
3.53197e-16
7.41492e-16
8.51807e-16
1.22822e-16
-1.8842e-15
-4.88395e-15
-7.27179e-15
-6.07221e-15
2.02788e-15
1.84647e-14
4.01331e-14
5.77945e-14
5.72145e-14
2.37426e-14
-5.07839e-14
-1.61742e-13
-2.89563e-13
-4.03893e-13
-4.73344e-13
-4.77085e-13
-4.13101e-13
-2.99225e-13
-1.66367e-13
-4.70572e-14
3.55364e-14
7.36058e-14
7.39604e-14
5.20655e-14
2.43906e-14
2.5715e-15
-8.77235e-15
-1.08241e-14
-7.61356e-15
-3.17587e-15
4.1223e-17
1.38026e-15
1.32383e-15
6.79452e-16
4.69785e-17
-3.3132e-16
-4.71127e-16
-4.82172e-16
-4.5733e-16
-4.39205e-16
-4.33957e-16
-4.3491e-16
-4.36462e-16
-4.3699e-16
-4.36911e-16
-4.3678e-16
-4.36748e-16
-4.36762e-16
-4.36772e-16
-4.36772e-16
-4.3677e-16
-4.3677e-16
-4.3677e-16
-4.3677e-16
-4.3677e-16
-4.3677e-16
-4.3677e-16
-4.3677e-16
-4.3677e-16
-2.80809e-27
2.15145e-26
5.6897e-26
2.44624e-26
-2.23851e-25
-6.41719e-25
-4.25656e-25
2.04302e-24
6.78884e-24
6.57033e-24
-1.53364e-23
-6.56908e-23
-8.80057e-23
7.66844e-23
5.59788e-22
1.01204e-21
9.19865e-23
-3.92616e-21
-9.80609e-21
-8.02088e-21
1.8992e-20
7.68486e-20
1.14462e-19
-8.22163e-21
-4.39978e-19
-1.04541e-18
-9.98974e-19
1.19578e-18
6.37049e-18
1.16834e-17
7.78034e-18
-1.87528e-17
-7.14712e-17
-1.19097e-16
-7.69498e-17
1.67786e-16
6.49035e-16
1.14234e-15
1.02412e-15
-6.10781e-16
-4.3496e-15
-9.37827e-15
-1.23785e-14
-7.38414e-15
1.22663e-14
4.9371e-14
9.66769e-14
1.31863e-13
1.17532e-13
9.17319e-15
-2.29116e-13
-6.05739e-13
-1.08757e-12
-1.59887e-12
-2.03699e-12
-2.3015e-12
-2.32653e-12
-2.10354e-12
-1.68487e-12
-1.16628e-12
-6.55868e-13
-2.41731e-13
2.95175e-14
1.57025e-13
1.74349e-13
1.29841e-13
6.78468e-14
1.72256e-14
-1.09713e-14
-1.89533e-14
-1.50103e-14
-7.42782e-15
-1.33458e-15
1.63281e-15
2.07615e-15
1.31696e-15
4.05918e-16
-1.84313e-16
-4.22276e-16
-4.55594e-16
-4.24486e-16
-3.98136e-16
-3.8963e-16
-3.90523e-16
-3.92651e-16
-3.93426e-16
-3.93336e-16
-3.93159e-16
-3.93116e-16
-3.93135e-16
-3.93147e-16
-3.93147e-16
-3.93145e-16
-3.93144e-16
-3.93145e-16
-3.93145e-16
-3.93145e-16
-3.93145e-16
-3.93145e-16
-3.93145e-16
1.33314e-26
7.57447e-26
6.43108e-26
-2.26161e-25
-8.386e-25
-8.45844e-25
2.04302e-24
8.72971e-24
1.08482e-23
-1.46021e-23
-8.30026e-23
-1.29634e-22
5.84983e-23
6.95556e-22
1.39148e-21
3.84688e-22
-4.80332e-21
-1.29477e-20
-1.16803e-20
2.28142e-20
9.93972e-20
1.5154e-19
-6.20236e-21
-5.68764e-19
-1.34783e-18
-1.2473e-18
1.65289e-18
8.25433e-18
1.45457e-17
8.37804e-18
-2.63418e-17
-9.09507e-17
-1.41699e-16
-7.2606e-17
2.42478e-16
8.11325e-16
1.31907e-15
1.00983e-15
-1.09496e-15
-5.44289e-15
-1.07691e-14
-1.31028e-14
-6.00874e-15
1.69522e-14
5.74059e-14
1.06329e-13
1.39938e-13
1.20439e-13
3.48045e-15
-2.4851e-13
-6.50932e-13
-1.18511e-12
-1.79494e-12
-2.39453e-12
-2.8855e-12
-3.17957e-12
-3.22011e-12
-2.9967e-12
-2.54854e-12
-1.95534e-12
-1.318e-12
-7.34333e-13
-2.76901e-13
2.0459e-14
1.63933e-13
1.89619e-13
1.46853e-13
8.15637e-14
2.51759e-14
-8.5855e-15
-2.01978e-14
-1.75664e-14
-9.60443e-15
-2.40234e-15
1.65929e-15
2.85516e-15
2.50362e-15
1.78216e-15
1.27887e-15
1.08474e-15
1.07234e-15
1.1092e-15
1.13351e-15
1.1387e-15
1.13621e-15
1.13403e-15
1.13363e-15
1.13389e-15
1.13406e-15
1.13406e-15
1.13403e-15
1.13402e-15
1.13403e-15
1.13403e-15
1.13403e-15
1.13403e-15
1.13403e-15
1.13403e-15
1.13403e-15
1.13403e-15
4.45326e-26
7.62096e-26
-1.17383e-25
-6.45538e-25
-9.11866e-25
1.03731e-24
6.78884e-24
1.08482e-23
-6.48006e-24
-6.50337e-23
-1.22368e-22
4.5591e-24
5.4922e-22
1.26825e-21
6.3543e-22
-3.83286e-21
-1.1661e-20
-1.19331e-20
1.84647e-20
9.07243e-20
1.43725e-19
-3.92629e-21
-5.47274e-19
-1.29007e-18
-1.10208e-18
1.94419e-18
8.49634e-18
1.37202e-17
4.41461e-18
-3.45798e-17
-9.74974e-17
-1.25456e-16
-1.22053e-19
3.81003e-16
9.21162e-16
1.11848e-15
8.3497e-17
-2.91072e-15
-7.27419e-15
-9.88807e-15
-5.10973e-15
1.2568e-14
4.29012e-14
7.35218e-14
7.76832e-14
2.15597e-14
-1.17013e-13
-3.23891e-13
-5.31296e-13
-6.23234e-13
-4.71557e-13
5.46498e-15
7.86943e-13
1.72678e-12
2.58512e-12
3.10878e-12
3.12886e-12
2.63058e-12
1.76162e-12
7.73767e-13
-7.41518e-14
-6.07392e-13
-7.81759e-13
-6.71938e-13
-4.1672e-13
-1.53001e-13
3.13245e-14
1.11153e-13
1.09031e-13
6.69864e-14
2.1854e-14
-6.8123e-15
-1.62438e-14
-1.31026e-14
-5.68358e-15
5.89827e-16
3.96108e-15
4.99763e-15
4.92213e-15
4.62433e-15
4.45259e-15
4.41708e-15
4.43442e-15
4.45058e-15
4.45458e-15
4.45309e-15
4.45173e-15
4.45153e-15
4.45172e-15
4.45181e-15
4.4518e-15
4.45178e-15
4.45178e-15
4.45178e-15
4.45178e-15
4.45178e-15
4.45178e-15
4.45178e-15
4.45178e-15
4.45178e-15
4.35005e-26
-1.68864e-25
-5.71641e-25
-4.7878e-25
1.70906e-24
6.32388e-24
6.57033e-24
-1.46021e-23
-6.50337e-23
-8.56949e-23
9.36824e-23
6.05653e-22
1.02055e-21
-2.15328e-22
-4.89223e-21
-1.07535e-20
-5.31677e-21
3.13863e-20
9.6813e-20
1.0802e-19
-1.18751e-19
-7.03385e-19
-1.25294e-18
-4.15372e-19
3.59129e-18
1.02575e-17
1.23094e-17
-5.67949e-18
-5.62095e-17
-1.19133e-16
-1.07392e-16
1.22625e-16
6.47211e-16
1.22131e-15
1.04288e-15
-1.09427e-15
-5.82665e-15
-1.13985e-14
-1.19688e-14
1.77174e-15
3.71979e-14
8.90272e-14
1.27352e-13
9.40365e-14
-8.05675e-14
-4.34039e-13
-9.09598e-13
-1.30224e-12
-1.25251e-12
-3.19847e-13
1.86342e-12
5.40188e-12
9.9913e-12
1.49011e-11
1.91265e-11
2.1678e-11
2.19062e-11
1.97303e-11
1.56721e-11
1.06793e-11
5.81219e-12
1.92098e-12
-5.6208e-13
-1.6571e-12
-1.71494e-12
-1.21794e-12
-5.94624e-13
-1.12068e-13
1.39354e-13
1.95017e-13
1.42774e-13
6.40678e-14
5.88048e-15
-1.95831e-14
-2.07952e-14
-1.16293e-14
-2.1756e-15
3.52559e-15
5.64295e-15
5.83399e-15
5.49044e-15
5.23976e-15
5.16939e-15
5.18336e-15
5.20403e-15
5.21048e-15
5.20917e-15
5.2075e-15
5.20718e-15
5.20738e-15
5.20749e-15
5.20748e-15
5.20746e-15
5.20746e-15
5.20746e-15
5.20746e-15
5.20746e-15
5.20746e-15
5.20746e-15
5.20746e-15
-9.98962e-26
-7.37231e-25
-8.00786e-25
1.79994e-24
8.09776e-24
1.00496e-23
-1.53364e-23
-8.30026e-23
-1.22368e-22
9.36823e-23
7.70764e-22
1.39249e-21
-9.66401e-23
-6.22527e-21
-1.42903e-20
-7.82332e-21
4.01876e-20
1.27183e-19
1.43017e-19
-1.56678e-19
-9.26101e-19
-1.62804e-18
-4.63847e-19
4.84676e-18
1.3382e-17
1.52608e-17
-9.47876e-18
-7.52056e-17
-1.51731e-16
-1.23473e-16
1.87841e-16
8.53883e-16
1.52041e-15
1.14983e-15
-1.7062e-15
-7.62029e-15
-1.40792e-14
-1.36755e-14
4.67463e-15
4.88202e-14
1.10679e-13
1.52968e-13
1.06311e-13
-1.10539e-13
-5.41129e-13
-1.12144e-12
-1.61745e-12
-1.60907e-12
-5.53562e-13
2.06575e-12
6.53868e-12
1.27431e-11
2.00544e-11
2.7406e-11
3.35071e-11
3.71635e-11
3.76049e-11
3.47087e-11
2.90428e-11
2.17104e-11
1.40467e-11
7.27006e-12
2.1997e-12
-8.76825e-13
-2.16287e-12
-2.17963e-12
-1.54149e-12
-7.64607e-13
-1.63158e-13
1.57136e-13
2.37402e-13
1.81325e-13
8.69633e-14
1.29733e-14
-2.32626e-14
-2.99619e-14
-2.29328e-14
-1.42151e-14
-8.90898e-15
-7.12324e-15
-7.15771e-15
-7.58622e-15
-7.82917e-15
-7.86894e-15
-7.83844e-15
-7.81662e-15
-7.81359e-15
-7.81663e-15
-7.81822e-15
-7.81814e-15
-7.81784e-15
-7.81778e-15
-7.81782e-15
-7.81784e-15
-7.81783e-15
-7.81783e-15
-7.81783e-15
-7.81783e-15
-7.81783e-15
-7.81783e-15
-4.31957e-25
-9.73959e-25
6.94458e-25
6.39891e-24
1.1361e-23
-4.83777e-24
-6.56908e-23
-1.29634e-22
4.55907e-24
6.05653e-22
1.39249e-21
5.56502e-22
-4.80628e-21
-1.36753e-20
-1.16827e-20
2.97601e-20
1.18279e-19
1.58626e-19
-9.65018e-20
-8.50736e-19
-1.64663e-18
-6.88795e-19
4.49503e-18
1.32402e-17
1.54591e-17
-9.77305e-18
-7.70002e-17
-1.51486e-16
-1.06962e-16
2.38489e-16
9.17663e-16
1.46325e-15
7.0672e-16
-2.70358e-15
-8.62424e-15
-1.30761e-14
-7.35476e-15
1.81847e-14
6.38286e-14
1.07023e-13
9.63554e-14
-3.24728e-14
-3.1093e-13
-6.74486e-13
-9.19718e-13
-7.31432e-13
1.9116e-13
1.93649e-12
4.20512e-12
6.28231e-12
7.2403e-12
6.33571e-12
3.43342e-12
-7.7552e-13
-4.92839e-12
-7.50274e-12
-7.46786e-12
-4.75762e-12
-3.18924e-13
4.2954e-12
7.58574e-12
8.69298e-12
7.64826e-12
5.21256e-12
2.44184e-12
2.22296e-13
-1.01271e-12
-1.30505e-12
-9.95928e-13
-4.88146e-13
-7.02e-14
1.44009e-13
1.78319e-13
1.16672e-13
3.6989e-14
-1.90662e-14
-4.42063e-14
-4.88811e-14
-4.57778e-14
-4.24402e-14
-4.101e-14
-4.09098e-14
-4.11686e-14
-4.13231e-14
-4.13427e-14
-4.132e-14
-4.13072e-14
-4.13069e-14
-4.13092e-14
-4.13099e-14
-4.13097e-14
-4.13095e-14
-4.13095e-14
-4.13096e-14
-4.13096e-14
-4.13096e-14
-4.13096e-14
-4.13096e-14
-4.13096e-14
-4.13096e-14
-5.83907e-25
9.40628e-25
5.17496e-24
7.23197e-24
-8.75613e-24
-5.57115e-23
-8.80058e-23
5.84983e-23
5.4922e-22
1.02055e-21
-9.66403e-23
-4.80628e-21
-1.09342e-20
-4.95734e-21
3.51753e-20
1.04621e-19
1.02783e-19
-1.83792e-19
-8.55017e-19
-1.31914e-18
1.77908e-19
5.51113e-18
1.2622e-17
9.95902e-18
-2.21816e-17
-8.97811e-17
-1.39713e-16
-2.74823e-17
4.11675e-16
1.10007e-15
1.33605e-15
-2.90319e-16
-4.97518e-15
-1.13629e-14
-1.28017e-14
2.53242e-15
4.40875e-14
1.02198e-13
1.29286e-13
3.83967e-14
-2.55631e-13
-7.41128e-13
-1.19021e-12
-1.09907e-12
1.96796e-13
3.15597e-12
7.46557e-12
1.15102e-11
1.2238e-11
5.74228e-12
-1.13955e-11
-4.03772e-11
-7.88087e-11
-1.20455e-10
-1.56547e-10
-1.78365e-10
-1.80175e-10
-1.61296e-10
-1.264e-10
-8.38885e-11
-4.30395e-11
-1.11296e-11
8.3699e-12
1.59917e-11
1.50813e-11
9.96398e-12
4.31165e-12
2.61443e-13
-1.62273e-12
-1.82391e-12
-1.19443e-12
-4.50003e-13
3.98233e-14
2.16803e-13
1.8769e-13
8.55835e-14
-3.82325e-15
-5.26731e-14
-6.84865e-14
-6.84427e-14
-6.49459e-14
-6.28475e-14
-6.23961e-14
-6.25847e-14
-6.27632e-14
-6.28051e-14
-6.27882e-14
-6.27743e-14
-6.27728e-14
-6.27749e-14
-6.27756e-14
-6.27755e-14
-6.27753e-14
-6.27753e-14
-6.27753e-14
-6.27753e-14
-6.27753e-14
-6.27753e-14
-6.27753e-14
-6.27753e-14
4.93577e-25
6.39801e-24
9.12891e-24
-1.06221e-23
-6.94533e-23
-1.0972e-22
7.66843e-23
6.95556e-22
1.26825e-21
-2.15327e-22
-6.22527e-21
-1.36753e-20
-4.95734e-21
4.72769e-20
1.32928e-19
1.17503e-19
-2.68152e-19
-1.11537e-18
-1.59383e-18
5.64668e-19
7.5145e-18
1.59321e-17
1.03243e-17
-3.36315e-17
-1.18858e-16
-1.69284e-16
2.89492e-18
5.88435e-16
1.43148e-15
1.56481e-15
-8.07552e-16
-6.99695e-15
-1.47879e-14
-1.51525e-14
6.99585e-15
6.24203e-14
1.35894e-13
1.62968e-13
2.9934e-14
-3.71483e-13
-1.02081e-12
-1.61286e-12
-1.47242e-12
3.14522e-13
4.44285e-12
1.0637e-11
1.68558e-11
1.88885e-11
1.07954e-11
-1.35954e-11
-5.83776e-11
-1.23185e-10
-2.01753e-10
-2.8228e-10
-3.4986e-10
-3.90404e-10
-3.94779e-10
-3.61675e-10
-2.98094e-10
-2.17252e-10
-1.34666e-10
-6.38607e-11
-1.31816e-11
1.53633e-11
2.51527e-11
2.26109e-11
1.45621e-11
6.24317e-12
4.5639e-13
-2.20665e-12
-2.51935e-12
-1.68319e-12
-6.74023e-13
9.31635e-15
2.83648e-13
2.83986e-13
1.81264e-13
8.61779e-14
3.55543e-14
2.13134e-14
2.34116e-14
2.79285e-14
3.01046e-14
3.0324e-14
2.99873e-14
2.97911e-14
2.97756e-14
2.98072e-14
2.98206e-14
2.9819e-14
2.98162e-14
2.98158e-14
2.98162e-14
2.98163e-14
2.98163e-14
2.98163e-14
2.98163e-14
2.98163e-14
2.98163e-14
2.98163e-14
3.68639e-24
1.10576e-23
-7.46978e-25
-5.62594e-23
-1.26355e-22
-1.93568e-23
5.59788e-22
1.39148e-21
6.3543e-22
-4.89223e-21
-1.42903e-20
-1.16827e-20
3.51753e-20
1.32928e-19
1.6337e-19
-1.70243e-19
-1.07326e-18
-1.84949e-18
-1.1241e-19
6.96803e-18
1.69994e-17
1.41461e-17
-2.94079e-17
-1.21939e-16
-1.86556e-16
-1.81771e-17
6.01139e-16
1.50867e-15
1.63727e-15
-9.69114e-16
-7.582e-15
-1.53309e-14
-1.39167e-14
1.22729e-14
7.08008e-14
1.37177e-13
1.35489e-13
-4.59949e-14
-4.75756e-13
-1.04361e-12
-1.34228e-12
-6.97928e-13
1.53013e-12
5.38854e-12
9.73004e-12
1.19731e-11
8.59024e-12
-3.6239e-12
-2.59518e-11
-5.66463e-11
-9.10849e-11
-1.23365e-10
-1.48664e-10
-1.65125e-10
-1.74138e-10
-1.78822e-10
-1.81552e-10
-1.82084e-10
-1.77467e-10
-1.63862e-10
-1.39188e-10
-1.05018e-10
-6.65714e-11
-3.08167e-11
-3.75069e-12
1.173e-11
1.64023e-11
1.37076e-11
7.91546e-12
2.45171e-12
-9.3756e-13
-2.09062e-12
-1.76382e-12
-8.91998e-13
-1.20376e-13
3.10672e-13
4.44685e-13
4.25963e-13
3.7311e-13
3.39347e-13
3.29584e-13
3.31405e-13
3.34636e-13
3.35946e-13
3.35903e-13
3.35617e-13
3.3551e-13
3.35526e-13
3.35551e-13
3.35556e-13
3.35552e-13
3.35551e-13
3.35551e-13
3.35551e-13
3.35551e-13
3.35551e-13
3.35551e-13
3.35551e-13
3.35551e-13
3.35551e-13
6.72504e-24
-6.29668e-25
-4.03762e-23
-8.94862e-23
-8.32104e-24
4.17065e-22
1.01204e-21
3.84688e-22
-3.83286e-21
-1.07535e-20
-7.82332e-21
2.97601e-20
1.04621e-19
1.17503e-19
-1.70243e-19
-8.98776e-19
-1.42539e-18
2.87115e-19
6.42125e-18
1.41811e-17
8.85969e-18
-3.31759e-17
-1.12998e-16
-1.48441e-16
5.48585e-17
6.64545e-16
1.41199e-15
1.1159e-15
-2.09723e-15
-8.81891e-15
-1.45706e-14
-7.11164e-15
2.86563e-14
9.20392e-14
1.38182e-13
6.4631e-14
-2.44385e-13
-7.84859e-13
-1.24682e-12
-9.22304e-13
1.06272e-12
5.03143e-12
9.69964e-12
1.1401e-11
4.56937e-12
-1.5725e-11
-4.93519e-11
-8.64861e-11
-1.05673e-10
-7.74075e-11
2.59894e-11
2.16833e-10
4.80626e-10
7.73167e-10
1.02988e-09
1.18551e-09
1.19699e-09
1.05951e-09
8.08831e-10
5.08297e-10
2.2659e-10
1.56388e-11
-1.02487e-10
-1.35882e-10
-1.12516e-10
-6.56179e-11
-2.14489e-11
6.51339e-12
1.67552e-11
1.48875e-11
8.20178e-12
2.03374e-12
-1.36746e-12
-2.14016e-12
-1.45795e-12
-4.44143e-13
2.96904e-13
6.46773e-13
7.32136e-13
7.11695e-13
6.80027e-13
6.65593e-13
6.64176e-13
6.6635e-13
6.67645e-13
6.67785e-13
6.67596e-13
6.67503e-13
6.67508e-13
6.67525e-13
6.67529e-13
6.67527e-13
6.67526e-13
6.67526e-13
6.67526e-13
6.67526e-13
6.67526e-13
6.67526e-13
6.67526e-13
6.67526e-13
7.42743e-25
-4.68629e-23
-9.22327e-23
1.9657e-23
4.98945e-22
1.06415e-21
9.19876e-23
-4.80332e-21
-1.1661e-20
-5.31678e-21
4.01876e-20
1.18279e-19
1.02783e-19
-2.68152e-19
-1.07326e-18
-1.42539e-18
1.03819e-18
8.27554e-18
1.56464e-17
4.914e-18
-4.88841e-17
-1.36607e-16
-1.46517e-16
1.49842e-16
8.96553e-16
1.6477e-15
8.71578e-16
-3.5602e-15
-1.1698e-14
-1.69013e-14
-3.33266e-15
4.62069e-14
1.25142e-13
1.67613e-13
3.61896e-14
-4.11278e-13
-1.13695e-12
-1.67154e-12
-9.98023e-13
2.10944e-12
8.04776e-12
1.48094e-11
1.67084e-11
4.85124e-12
-2.92482e-11
-8.66565e-11
-1.52528e-10
-1.90324e-10
-1.43812e-10
4.9866e-11
4.37374e-10
1.02359e-09
1.75419e-09
2.51647e-09
3.16282e-09
3.55119e-09
3.58913e-09
3.26443e-09
2.64993e-09
1.8803e-09
1.11006e-09
4.68881e-10
3.05175e-11
-1.95667e-10
-2.51456e-10
-2.03819e-10
-1.18258e-10
-4.08778e-11
7.19955e-12
2.52146e-11
2.32878e-11
1.34052e-11
4.00369e-12
-1.40675e-12
-2.9587e-12
-2.3271e-12
-1.12238e-12
-2.17219e-13
2.01674e-13
2.91753e-13
2.56815e-13
2.1517e-13
1.98565e-13
1.98339e-13
2.01581e-13
2.03086e-13
2.03079e-13
2.02793e-13
2.02699e-13
2.02722e-13
2.02744e-13
2.02746e-13
2.02742e-13
2.02741e-13
2.02742e-13
2.02742e-13
2.02742e-13
2.02742e-13
2.02742e-13
2.02742e-13
-2.58433e-23
-1.08295e-22
-5.26595e-23
4.13367e-22
1.21501e-21
8.10552e-22
-3.92616e-21
-1.29477e-20
-1.19331e-20
3.13863e-20
1.27183e-19
1.58627e-19
-1.83792e-19
-1.11537e-18
-1.84949e-18
2.87114e-19
8.27554e-18
1.84611e-17
1.09583e-17
-4.61047e-17
-1.52128e-16
-1.89353e-16
1.11757e-16
9.59796e-16
1.90781e-15
1.21631e-15
-3.66419e-15
-1.30023e-14
-1.93241e-14
-4.44062e-15
5.11883e-14
1.38939e-13
1.82056e-13
2.64932e-14
-4.73801e-13
-1.24345e-12
-1.72435e-12
-8.13199e-13
2.66525e-12
8.77913e-12
1.49481e-11
1.507e-11
7.32471e-13
-3.45466e-11
-8.86225e-11
-1.44166e-10
-1.66142e-10
-1.06604e-10
8.27612e-11
4.33774e-10
9.46842e-10
1.58411e-09
2.27369e-09
2.92337e-09
3.43912e-09
3.74303e-09
3.787e-09
3.56118e-09
3.09657e-09
2.46122e-09
1.74908e-09
1.06182e-09
4.87118e-10
7.97058e-11
-1.48139e-10
-2.23149e-10
-1.96444e-10
-1.24069e-10
-5.04061e-11
1.7619e-13
2.25271e-11
2.37988e-11
1.5075e-11
5.28368e-12
-1.16858e-12
-3.75254e-12
-3.87201e-12
-3.12849e-12
-2.47637e-12
-2.18007e-12
-2.13569e-12
-2.17657e-12
-2.21032e-12
-2.2196e-12
-2.21711e-12
-2.21409e-12
-2.21335e-12
-2.21366e-12
-2.2139e-12
-2.21391e-12
-2.21387e-12
-2.21386e-12
-2.21387e-12
-2.21387e-12
-2.21387e-12
-2.21387e-12
-2.21387e-12
-2.21387e-12
-2.21387e-12
-2.21387e-12
-6.52301e-23
-7.05028e-23
2.47303e-22
9.14549e-22
9.00441e-22
-2.35945e-21
-9.80609e-21
-1.16803e-20
1.84647e-20
9.6813e-20
1.43017e-19
-9.65018e-20
-8.55017e-19
-1.59383e-18
-1.1241e-19
6.42125e-18
1.56464e-17
1.09583e-17
-3.65746e-17
-1.30019e-16
-1.67935e-16
9.43604e-17
8.53491e-16
1.69425e-15
9.74808e-16
-3.67432e-15
-1.2225e-14
-1.68388e-14
4.91633e-16
5.66798e-14
1.35321e-13
1.47612e-13
-6.29962e-14
-6.01911e-13
-1.27225e-12
-1.33248e-12
3.94115e-13
4.6754e-12
1.02897e-11
1.25661e-11
3.81568e-12
-2.25424e-11
-6.41098e-11
-1.01319e-10
-9.57666e-11
-2.17734e-12
2.04317e-10
4.94241e-10
7.61994e-10
8.37131e-10
5.38311e-10
-2.42968e-10
-1.46437e-09
-2.90385e-09
-4.20728e-09
-5.00448e-09
-5.0484e-09
-4.31472e-09
-3.0145e-09
-1.51261e-09
-1.90031e-10
6.87342e-10
1.03879e-09
9.57166e-10
6.34687e-10
2.69804e-10
-2.3804e-12
-1.34193e-10
-1.48065e-10
-9.87479e-11
-3.81152e-11
3.76531e-12
2.00452e-11
1.80993e-11
8.8932e-12
2.67971e-13
-4.7678e-12
-6.57512e-12
-6.68156e-12
-6.33462e-12
-6.09164e-12
-6.02424e-12
-6.03871e-12
-6.05981e-12
-6.0667e-12
-6.0655e-12
-6.06371e-12
-6.0633e-12
-6.0635e-12
-6.06363e-12
-6.06363e-12
-6.06361e-12
-6.0636e-12
-6.06361e-12
-6.06361e-12
-6.06361e-12
-6.06361e-12
-6.06361e-12
-6.06361e-12
-6.06361e-12
-5.44645e-23
2.55658e-22
7.95981e-22
5.63607e-22
-2.60735e-21
-8.79907e-21
-8.0209e-21
2.28142e-20
9.07243e-20
1.0802e-19
-1.56678e-19
-8.50736e-19
-1.31914e-18
5.64666e-19
6.96803e-18
1.41811e-17
4.91401e-18
-4.61047e-17
-1.30019e-16
-1.29451e-16
1.94934e-16
9.65405e-16
1.59602e-15
2.8193e-16
-5.13906e-15
-1.35068e-14
-1.47837e-14
1.0744e-14
7.67228e-14
1.52296e-13
1.22016e-13
-1.91763e-13
-8.61529e-13
-1.53594e-12
-1.17565e-12
1.68886e-12
7.67554e-12
1.42991e-11
1.40616e-11
-4.41021e-12
-4.93163e-11
-1.12462e-10
-1.55285e-10
-1.05955e-10
1.1841e-10
5.57706e-10
1.13419e-09
1.5906e-09
1.48748e-09
2.95866e-10
-2.41626e-09
-6.75844e-09
-1.2349e-08
-1.83006e-08
-2.34053e-08
-2.64804e-08
-2.67526e-08
-2.41266e-08
-1.92252e-08
-1.31807e-08
-7.26406e-09
-2.50257e-09
5.70842e-10
1.96376e-09
2.08511e-09
1.51043e-09
7.59753e-10
1.64618e-10
-1.55362e-10
-2.35305e-10
-1.78359e-10
-8.38162e-11
-1.11346e-11
2.24087e-11
2.56882e-11
1.52681e-11
3.76853e-12
-3.425e-12
-6.22069e-12
-6.55171e-12
-6.1474e-12
-5.8278e-12
-5.73057e-12
-5.74452e-12
-5.7706e-12
-5.7795e-12
-5.77815e-12
-5.776e-12
-5.77553e-12
-5.77577e-12
-5.77592e-12
-5.77591e-12
-5.77588e-12
-5.77588e-12
-5.77588e-12
-5.77589e-12
-5.77588e-12
-5.77588e-12
-5.77588e-12
-5.77588e-12
1.24118e-22
8.79182e-22
9.26721e-22
-2.21136e-21
-9.67272e-21
-1.17154e-20
1.8992e-20
9.93972e-20
1.43725e-19
-1.18751e-19
-9.26101e-19
-1.64664e-18
1.77907e-19
7.5145e-18
1.69994e-17
8.85969e-18
-4.88841e-17
-1.52128e-16
-1.67935e-16
1.94934e-16
1.11423e-15
1.93551e-15
5.02681e-16
-5.8824e-15
-1.60328e-14
-1.80265e-14
1.19858e-14
9.08031e-14
1.81478e-13
1.44939e-13
-2.31522e-13
-1.02998e-12
-1.81943e-12
-1.35148e-12
2.10386e-12
9.20601e-12
1.68933e-11
1.62364e-11
-6.04926e-12
-5.92468e-11
-1.33368e-10
-1.83286e-10
-1.2547e-10
1.37403e-10
6.56588e-10
1.35325e-09
1.94377e-09
1.92143e-09
6.33835e-10
-2.53721e-09
-7.93405e-09
-1.54019e-08
-2.41828e-08
-3.2991e-08
-4.02776e-08
-4.46169e-08
-4.50965e-08
-4.15824e-08
-3.47654e-08
-2.59717e-08
-1.67984e-08
-8.69738e-09
-2.64104e-09
1.03292e-09
2.57062e-09
2.59486e-09
1.83789e-09
9.14243e-10
1.98052e-10
-1.84389e-10
-2.81382e-10
-2.15786e-10
-1.04058e-10
-1.60642e-11
2.72879e-11
3.55517e-11
2.74056e-11
1.71451e-11
1.08671e-11
8.74227e-12
8.77561e-12
9.28088e-12
9.56896e-12
9.61668e-12
9.58077e-12
9.55488e-12
9.55124e-12
9.55483e-12
9.55672e-12
9.55663e-12
9.55627e-12
9.55621e-12
9.55625e-12
9.55627e-12
9.55627e-12
9.55627e-12
9.55627e-12
9.55627e-12
9.55627e-12
9.55627e-12
5.1127e-22
1.13074e-21
-8.501e-22
-7.52252e-21
-1.3243e-20
5.79659e-21
7.68486e-20
1.5154e-19
-3.92628e-21
-7.03385e-19
-1.62805e-18
-6.88795e-19
5.51113e-18
1.59321e-17
1.41461e-17
-3.31759e-17
-1.36607e-16
-1.89353e-16
9.43605e-17
9.65405e-16
1.93551e-15
9.64174e-16
-4.8927e-15
-1.52317e-14
-1.89578e-14
8.14986e-15
8.51781e-14
1.77515e-13
1.44594e-13
-2.30404e-13
-1.02041e-12
-1.74945e-12
-1.10852e-12
2.57045e-12
9.51311e-12
1.57551e-11
1.16171e-11
-1.49677e-11
-6.76569e-11
-1.2595e-10
-1.35054e-10
-1.74123e-11
2.82798e-10
7.29928e-10
1.13652e-09
1.1639e-09
4.21813e-10
-1.34498e-09
-4.06177e-09
-7.23879e-09
-1.00871e-08
-1.18282e-08
-1.20666e-08
-1.10251e-08
-9.48751e-09
-8.43831e-09
-8.57003e-09
-9.91646e-09
-1.18169e-08
-1.32365e-08
-1.32729e-08
-1.15802e-08
-8.50255e-09
-4.87576e-09
-1.6318e-09
5.77992e-10
1.57e-09
1.58037e-09
1.05931e-09
4.40648e-10
-5.84217e-12
-2.03223e-10
-2.08012e-10
-1.22898e-10
-3.122e-11
2.77983e-11
5.15459e-11
5.40388e-11
4.95307e-11
4.56938e-11
4.42542e-11
4.42612e-11
4.45844e-11
4.47509e-11
4.47631e-11
4.47347e-11
4.47209e-11
4.47214e-11
4.47241e-11
4.47248e-11
4.47245e-11
4.47243e-11
4.47244e-11
4.47244e-11
4.47244e-11
4.47244e-11
4.47244e-11
4.47244e-11
4.47244e-11
4.47244e-11
7.70947e-22
-5.6197e-22
-5.52771e-21
-9.89237e-21
4.23895e-21
5.78733e-20
1.14462e-19
-6.20224e-21
-5.47274e-19
-1.25294e-18
-4.63849e-19
4.49503e-18
1.2622e-17
1.03243e-17
-2.94078e-17
-1.12998e-16
-1.46517e-16
1.11757e-16
8.53491e-16
1.59602e-15
5.02682e-16
-4.8927e-15
-1.36336e-14
-1.47052e-14
1.41177e-14
8.66259e-14
1.59937e-13
8.85883e-14
-3.27228e-13
-1.09082e-12
-1.58747e-12
-3.72588e-13
4.09007e-12
1.11664e-11
1.49883e-11
3.63214e-12
-3.47149e-11
-9.58695e-11
-1.39464e-10
-8.22424e-11
1.69732e-10
6.3501e-10
1.13867e-09
1.2369e-09
2.9395e-10
-2.20698e-09
-6.15167e-09
-1.02838e-08
-1.20266e-08
-7.94275e-09
5.10124e-09
2.83859e-08
6.00639e-08
9.48803e-08
1.25282e-07
1.43695e-07
1.45126e-07
1.29007e-07
9.94503e-08
6.37858e-08
3.00243e-08
4.31783e-09
-1.05843e-08
-1.54315e-08
-1.33458e-08
-8.16493e-09
-3.01558e-09
4.06704e-10
1.79916e-09
1.73104e-09
1.02288e-09
3.10188e-10
-1.13029e-10
-2.34288e-10
-1.75303e-10
-6.48557e-11
2.19424e-11
6.57982e-11
7.82287e-11
7.69191e-11
7.33591e-11
7.15085e-11
7.12156e-11
7.14367e-11
7.15986e-11
7.16264e-11
7.1607e-11
7.15948e-11
7.15944e-11
7.15964e-11
7.1597e-11
7.15968e-11
7.15967e-11
7.15967e-11
7.15967e-11
7.15967e-11
7.15967e-11
7.15967e-11
7.15967e-11
7.15967e-11
-3.38966e-23
-5.46995e-21
-1.00516e-20
3.94122e-21
5.84991e-20
1.16661e-19
-8.22148e-21
-5.68764e-19
-1.29007e-18
-4.15374e-19
4.84676e-18
1.32402e-17
9.95903e-18
-3.36315e-17
-1.21939e-16
-1.48441e-16
1.49842e-16
9.59795e-16
1.69425e-15
2.8193e-16
-5.8824e-15
-1.52317e-14
-1.47052e-14
2.05819e-14
1.03228e-13
1.77598e-13
7.10828e-14
-4.38175e-13
-1.31436e-12
-1.77121e-12
-6.67559e-14
5.5217e-12
1.38846e-11
1.7384e-11
1.093e-12
-4.9107e-11
-1.26111e-10
-1.75576e-10
-8.69387e-11
2.64961e-10
9.0511e-10
1.59329e-09
1.70279e-09
2.94637e-10
-3.47527e-09
-9.6081e-09
-1.63923e-08
-1.98551e-08
-1.40484e-08
7.52808e-09
4.95398e-08
1.12213e-07
1.89625e-07
2.69896e-07
3.37657e-07
3.78231e-07
3.82114e-07
3.48071e-07
2.8362e-07
2.02678e-07
1.21275e-07
5.29911e-08
5.71674e-09
-1.92996e-08
-2.61804e-08
-2.17999e-08
-1.30282e-08
-4.81964e-09
4.45841e-10
2.55046e-09