/*--------------------------------*- C++ -*----------------------------------*\
  =========                 |
  \\      /  F ield         | OpenFOAM: The Open Source CFD Toolbox
   \\    /   O peration     | Website:  https://openfoam.org
    \\  /    A nd           | Version:  13
     \\/     M anipulation  |
\*---------------------------------------------------------------------------*/
FoamFile
{
    format      ascii;
    class       volScalarField;
    location    "4.6";
    object      T;
}
// * * * * * * * * * * * * * * * * * * * * * * * * * * * * * * * * * * * * * //

dimensions      [0 0 0 1 0 0 0];

internalField   nonuniform List<scalar> 
10000
(
1.95567e-66
-8.65324e-67
9.5659e-66
-3.90169e-65
1.64867e-64
-6.44533e-64
2.32365e-63
-7.47876e-63
2.00189e-62
-3.44138e-62
-4.49012e-62
8.04446e-61
-4.94077e-60
2.27525e-59
-8.75081e-59
2.87788e-58
-7.98747e-58
1.76127e-57
-2.45225e-57
-1.50464e-57
2.37126e-56
-8.84943e-56
1.93425e-55
-1.50629e-55
-7.27645e-55
3.57698e-54
-7.46106e-54
1.33313e-54
4.33623e-53
-1.37502e-52
1.19068e-52
5.29876e-52
-2.08427e-51
1.81963e-51
8.398e-51
-2.88397e-50
8.1751e-51
1.53679e-49
-3.13708e-49
-3.83323e-49
2.3494e-48
-9.51747e-49
-1.20234e-47
1.80154e-47
4.94554e-47
-1.37358e-46
-1.76451e-46
8.27733e-46
6.0814e-46
-4.50443e-45
-2.56705e-45
2.31879e-44
1.60834e-44
-1.12806e-43
-1.24166e-43
4.93005e-43
9.25355e-43
-1.66662e-42
-5.92281e-42
1.78536e-42
2.96839e-41
2.96962e-41
-9.32898e-41
-2.75235e-40
-4.07848e-41
1.12499e-39
2.29392e-39
-1.40041e-40
-9.76313e-39
-2.11942e-38
-1.093e-38
5.52016e-38
1.81935e-37
2.79807e-37
1.2206e-37
-6.11958e-37
-2.17829e-36
-4.55266e-36
-7.29369e-36
-9.61649e-36
-1.06944e-35
-1.0051e-35
-7.81799e-36
-4.69843e-36
-1.64669e-36
5.5131e-37
1.56874e-36
1.5683e-36
1.00561e-36
3.55313e-37
-8.55452e-38
-2.45625e-37
-2.07819e-37
-9.87058e-38
-8.91534e-39
3.04731e-38
3.04739e-38
1.51603e-38
1.69546e-39
-3.77666e-39
-1.3456e-65
6.10136e-66
-6.66143e-65
2.7355e-64
-1.16366e-63
4.59407e-63
-1.68073e-62
5.54495e-62
-1.56158e-61
3.17153e-61
-2.18371e-62
-4.25641e-60
2.93828e-59
-1.41167e-58
5.55356e-58
-1.85382e-57
5.20664e-57
-1.16249e-56
1.6589e-56
8.28463e-57
-1.52459e-55
5.78547e-55
-1.28043e-54
1.0403e-54
4.6674e-54
-2.34331e-53
4.94692e-53
-1.04755e-53
-2.82639e-52
9.07111e-52
-8.04388e-52
-3.449e-51
1.3743e-50
-1.22369e-50
-5.48835e-50
1.9046e-49
-5.69466e-50
-1.00981e-48
2.07828e-48
2.49703e-48
-1.55002e-47
6.42756e-48
7.91737e-47
-1.19374e-46
-3.25252e-46
9.07653e-46
1.15949e-45
-5.46415e-45
-3.99695e-45
2.97228e-44
1.69127e-44
-1.52965e-43
-1.06273e-43
7.43817e-43
8.21163e-43
-3.24731e-42
-6.11643e-42
1.09459e-41
3.90966e-41
-1.1436e-41
-1.95489e-40
-1.97404e-40
6.1103e-40
1.81614e-39
2.93624e-40
-7.37351e-39
-1.51551e-38
6.3137e-40
6.38073e-38
1.39696e-37
7.46036e-38
-3.5661e-37
-1.18937e-36
-1.84599e-36
-8.51953e-37
3.8839e-36
1.40371e-35
2.94594e-35
4.72835e-35
6.23995e-35
6.94211e-35
6.52411e-35
5.07168e-35
3.0428e-35
1.0591e-35
-3.67843e-36
-1.02589e-35
-1.02189e-35
-6.53186e-36
-2.2899e-36
5.76672e-37
1.60991e-36
1.35535e-36
6.40169e-37
5.45203e-38
-2.00811e-37
-1.99253e-37
-9.85311e-38
-1.05428e-38
2.48609e-38
1.48065e-64
-6.80272e-65
7.37797e-64
-3.04073e-63
1.29808e-62
-5.15105e-62
1.89871e-61
-6.34142e-61
1.82895e-60
-3.97239e-60
2.22525e-60
3.91681e-59
-2.95676e-58
1.46123e-57
-5.8312e-57
1.96436e-56
-5.55654e-56
1.24977e-55
-1.80877e-55
-7.87283e-56
1.61362e-54
-6.18505e-54
1.37894e-53
-1.14743e-53
-4.93275e-53
2.50821e-52
-5.33255e-52
1.23189e-52
3.01618e-51
-9.74962e-51
8.76491e-51
3.67752e-50
-1.47666e-49
1.32996e-49
5.86609e-49
-2.04837e-48
6.31196e-49
1.08281e-47
-2.23932e-47
-2.66363e-47
1.66606e-46
-7.00345e-47
-8.50049e-46
1.28642e-45
3.48942e-45
-9.76535e-45
-1.2433e-44
5.87536e-44
4.2862e-44
-3.19517e-43
-1.81621e-43
1.64411e-42
1.14323e-42
-7.99267e-42
-8.8386e-42
3.48724e-41
6.58154e-41
-1.17348e-40
-4.20377e-40
1.20786e-40
2.09912e-39
2.13118e-39
-6.54007e-39
-1.95235e-38
-3.31043e-39
7.89528e-38
1.63036e-37
-4.94351e-39
-6.82057e-37
-1.50077e-36
-8.1766e-37
3.78537e-36
1.27157e-35
1.98427e-35
9.45303e-36
-4.07776e-35
-1.48773e-34
-3.13014e-34
-5.02963e-34
-6.64126e-34
-7.39032e-34
-6.94513e-34
-5.39706e-34
-3.2347e-34
-1.12118e-34
3.98001e-35
1.097e-34
1.09035e-34
6.95626e-35
2.42713e-35
-6.27637e-36
-1.7238e-35
-1.44694e-35
-6.81145e-36
-5.58883e-37
2.15704e-36
2.13042e-36
1.04971e-36
1.09264e-37
-2.6688e-37
-1.57277e-63
7.32429e-64
-7.88999e-63
3.26379e-62
-1.3983e-61
5.57731e-61
-2.07119e-60
7.00049e-60
-2.06468e-59
4.75115e-59
-4.54961e-59
-3.3164e-58
2.83654e-57
-1.45081e-56
5.88645e-56
-2.0036e-55
5.71269e-55
-1.2953e-54
1.90326e-54
6.9921e-55
-1.64367e-53
6.37111e-53
-1.43188e-52
1.22205e-52
5.01631e-52
-2.58713e-51
5.54297e-51
-1.39641e-51
-3.10075e-50
1.01021e-49
-9.21704e-50
-3.77709e-49
1.52955e-48
-1.39477e-48
-6.04099e-48
2.12392e-47
-6.75755e-48
-1.11909e-46
2.32666e-46
2.73702e-46
-1.72643e-45
7.36513e-46
8.79757e-45
-1.33683e-44
-3.60835e-44
1.01299e-43
1.28492e-43
-6.09079e-43
-4.42997e-43
3.31143e-42
1.88001e-42
-1.70365e-41
-1.18567e-41
8.27981e-41
9.17254e-41
-3.61012e-40
-6.8282e-40
1.2126e-39
4.35776e-39
-1.22762e-39
-2.17283e-38
-2.219e-38
6.74597e-38
2.02342e-37
3.60487e-38
-8.14737e-37
-1.69105e-36
3.03777e-38
7.02508e-36
1.55433e-35
8.65179e-36
-3.8686e-35
-1.30992e-34
-2.05633e-34
-1.01312e-34
4.11575e-34
1.51779e-33
3.20244e-33
5.15227e-33
6.80746e-33
7.57725e-33
7.12056e-33
5.5312e-33
3.31129e-33
1.14231e-33
-4.15404e-34
-1.13032e-33
-1.12077e-33
-7.13527e-34
-2.47637e-34
6.59229e-35
1.77879e-34
1.4882e-34
6.97968e-35
5.48397e-36
-2.23367e-35
-2.19489e-35
-1.07717e-35
-1.0863e-36
2.76172e-36
1.62793e-62
-7.68122e-63
8.22057e-62
-3.41269e-61
1.46711e-60
-5.88033e-60
2.19899e-59
-7.51436e-59
2.26074e-58
-5.45661e-58
6.9238e-58
2.57792e-57
-2.62815e-56
1.39919e-55
-5.78197e-55
1.99003e-54
-5.72172e-54
1.30826e-53
-1.95206e-53
-5.84691e-54
1.63022e-52
-6.39403e-52
1.44904e-51
-1.2685e-51
-4.96636e-51
2.60007e-50
-5.61541e-50
1.53527e-50
3.10542e-49
-1.02006e-48
9.4483e-49
3.77904e-48
-1.54397e-47
1.42589e-47
6.06104e-47
-2.14623e-46
7.05138e-47
1.12701e-45
-2.35608e-45
-2.7397e-45
1.74345e-44
-7.55123e-45
-8.87275e-44
1.354e-43
3.63598e-43
-1.02412e-42
-1.29395e-42
6.15355e-42
4.46128e-42
-3.34463e-41
-1.89627e-41
1.72044e-40
1.19834e-40
-8.35904e-40
-9.27698e-40
3.64219e-39
6.90403e-39
-1.22107e-38
-4.40252e-38
1.21488e-38
2.19185e-37
2.25193e-37
-6.78031e-37
-2.04375e-36
-3.82218e-37
8.19248e-36
1.70944e-35
-8.93209e-38
-7.05005e-35
-1.56884e-34
-8.92421e-35
3.85052e-34
1.31481e-33
2.07684e-33
1.05825e-33
-4.04164e-33
-1.50785e-32
-3.1911e-32
-5.14087e-32
-6.79689e-32
-7.56758e-32
-7.11124e-32
-5.52164e-32
-3.30155e-32
-1.13322e-32
4.2263e-33
1.13478e-32
1.12234e-32
7.12943e-33
2.46038e-33
-6.74996e-34
-1.78857e-33
-1.49124e-33
-6.96654e-34
-5.21693e-35
2.25415e-34
2.2033e-34
1.07676e-34
1.04904e-35
-2.78506e-35
-1.64082e-61
7.84139e-62
-8.33913e-61
3.47386e-60
-1.49832e-59
6.03331e-59
-2.27102e-58
7.83943e-58
-2.40093e-57
6.03247e-57
-9.16665e-57
-1.75429e-56
2.34514e-55
-1.30917e-54
5.52132e-54
-1.92324e-53
5.57884e-53
-1.28676e-52
1.95018e-52
4.51747e-53
-1.57308e-51
6.24752e-51
-1.42812e-50
1.28244e-50
4.78298e-50
-2.54422e-49
5.54048e-49
-1.63719e-49
-3.02761e-48
1.00306e-47
-9.43495e-48
-3.68048e-47
1.51772e-46
-1.42001e-46
-5.92037e-46
2.11211e-45
-7.16703e-46
-1.10518e-44
2.32374e-44
2.66946e-44
-1.7146e-43
7.54288e-44
8.71414e-43
-1.33573e-42
-3.56766e-42
1.00836e-41
1.26879e-41
-6.05466e-41
-4.37455e-41
3.28993e-40
1.86242e-40
-1.69201e-39
-1.17944e-39
8.21859e-39
9.13755e-39
-3.57851e-38
-6.79851e-38
1.19739e-37
4.33162e-37
-1.16972e-37
-2.15323e-36
-2.22593e-36
6.63576e-36
2.0104e-35
3.94361e-36
-8.02147e-35
-1.68298e-34
-1.33344e-36
6.88862e-34
1.54211e-33
8.96758e-34
-3.72969e-33
-1.28494e-32
-2.04282e-32
-1.07665e-32
3.85792e-32
1.45756e-31
3.09465e-31
4.99256e-31
6.60546e-31
7.35662e-31
6.91274e-31
5.36513e-31
3.20382e-31
1.09376e-31
-4.18847e-32
-1.10922e-31
-1.09415e-31
-6.93406e-32
-2.37856e-32
6.73306e-33
1.75113e-32
1.45477e-32
6.768e-33
4.80349e-34
-2.21537e-33
-2.15344e-33
-1.04775e-33
-9.82845e-35
2.73512e-34
1.60912e-60
-7.78595e-61
8.22965e-60
-3.43971e-59
1.48828e-58
-6.01937e-58
2.2798e-57
-7.94385e-57
2.47232e-56
-6.42862e-56
1.10945e-55
9.08852e-56
-2.00789e-54
1.1868e-53
-5.12061e-53
1.80695e-52
-5.29088e-52
1.23146e-51
-1.89621e-51
-3.10436e-52
1.47548e-50
-5.93814e-50
1.36963e-49
-1.2618e-49
-4.47676e-49
2.42194e-48
-5.31973e-48
1.69295e-48
2.87103e-47
-9.59754e-47
9.17074e-47
3.48624e-46
-1.4517e-45
1.3765e-45
5.62534e-45
-2.02258e-44
7.09003e-45
1.05443e-43
-2.23036e-43
-2.52971e-43
1.64082e-42
-7.33498e-43
-8.32734e-42
1.2824e-41
3.40596e-41
-9.66175e-41
-1.2104e-40
5.79716e-40
4.17312e-40
-3.14907e-39
-1.77963e-39
1.61929e-38
1.12953e-38
-7.86309e-38
-8.75803e-38
3.42129e-37
6.51461e-37
-1.1425e-36
-4.14725e-36
1.09481e-36
2.05832e-35
2.14131e-35
-6.3185e-35
-1.92441e-34
-3.9566e-35
7.6415e-34
1.61243e-33
3.46723e-35
-6.54809e-33
-1.47506e-32
-8.77163e-33
3.51266e-32
1.22164e-31
1.95536e-31
1.06606e-31
-3.57593e-31
-1.36971e-30
-2.91822e-30
-4.71507e-30
-6.243e-30
-6.95512e-30
-6.53521e-30
-5.06972e-30
-3.02324e-30
-1.02615e-30
4.04031e-31
1.0548e-30
1.03756e-30
6.55904e-31
2.23547e-31
-6.53773e-32
-1.66805e-31
-1.38051e-31
-6.39431e-32
-4.27213e-33
2.11865e-32
2.04754e-32
9.91581e-33
8.92104e-34
-2.6137e-33
-1.53404e-59
7.51313e-60
-7.89423e-59
3.31022e-58
-1.4366e-57
5.83489e-57
-2.22284e-56
7.81317e-56
-2.46736e-55
6.6089e-55
-1.25472e-54
-1.07346e-55
1.64132e-53
-1.04076e-52
4.60731e-52
-1.64887e-51
4.87632e-51
-1.14575e-50
1.79293e-50
1.71608e-51
-1.34395e-49
5.48556e-49
-1.2771e-48
1.2072e-48
4.06825e-48
-2.24095e-47
4.96634e-47
-1.69687e-47
-2.64574e-46
8.92791e-46
-8.66928e-46
-3.20885e-45
1.34994e-44
-1.29771e-44
-5.19474e-44
1.8831e-43
-6.82099e-44
-9.77945e-43
2.08154e-42
2.32943e-42
-1.52661e-41
6.93821e-42
7.73625e-41
-1.19721e-40
-3.16091e-40
9.0012e-40
1.12243e-39
-5.39675e-39
-3.86956e-39
2.93066e-38
1.653e-38
-1.50671e-37
-1.05163e-37
7.31433e-37
8.1614e-37
-3.18023e-36
-6.06954e-36
1.05982e-35
3.86065e-35
-9.95167e-36
-1.91297e-34
-2.00305e-34
5.84852e-34
1.79105e-33
3.85706e-34
-7.07648e-33
-1.50207e-32
-5.33813e-34
6.0501e-32
1.3718e-31
8.34496e-32
-3.21374e-31
-1.12894e-30
-1.8198e-30
-1.0265e-30
3.21501e-30
1.25013e-29
2.6734e-29
4.3265e-29
5.73309e-29
6.38919e-29
6.0032e-29
4.65465e-29
2.77164e-29
9.34906e-30
-3.7903e-30
-9.74962e-30
-9.56189e-30
-6.0287e-30
-2.04058e-30
6.17424e-31
1.54456e-30
1.27321e-30
5.86985e-31
3.6612e-32
-1.96993e-31
-1.89233e-31
-9.11903e-32
-7.83246e-33
2.4283e-32
1.42037e-58
-7.03926e-59
7.35368e-58
-3.09326e-57
1.34638e-56
-5.49051e-56
2.10321e-55
-7.45303e-55
2.38511e-54
-6.55646e-54
1.34102e-53
-5.90804e-54
-1.27179e-52
8.81347e-52
-4.01711e-51
1.45988e-50
-4.36335e-50
1.03539e-49
-1.64705e-49
-4.54942e-51
1.18754e-48
-4.92049e-48
1.15672e-47
-1.12205e-47
-3.58565e-47
2.0135e-46
-4.50393e-46
1.64773e-46
2.36706e-45
-8.06672e-45
7.96316e-45
2.86721e-44
-1.21929e-43
1.18879e-43
4.65779e-43
-1.70303e-42
6.37612e-43
8.80873e-42
-1.88722e-41
-2.08228e-41
1.37965e-40
-6.37825e-41
-6.98064e-40
1.08584e-39
2.84903e-39
-8.14622e-39
-1.01082e-38
4.88028e-38
3.48436e-38
-2.64936e-37
-1.49108e-37
1.36184e-36
9.50976e-37
-6.60915e-36
-7.38762e-36
2.87151e-35
5.49313e-35
-9.54918e-35
-3.49104e-34
8.77662e-35
1.72696e-33
1.82035e-33
-5.2576e-33
-1.61925e-32
-3.65031e-33
6.36458e-32
1.3593e-31
6.80391e-33
-5.42841e-31
-1.23926e-30
-7.71473e-31
2.85341e-30
1.01312e-29
1.64524e-29
9.60346e-30
-2.80029e-29
-1.10705e-28
-2.37694e-28
-3.85342e-28
-5.11058e-28
-5.69747e-28
-5.35303e-28
-4.1483e-28
-2.46624e-28
-8.26307e-29
3.45498e-29
8.75116e-29
8.55582e-29
5.37924e-29
1.8073e-29
-5.66625e-30
-1.389e-29
-1.14016e-29
-5.23044e-30
-3.01423e-31
1.77922e-30
1.69833e-30
8.14146e-31
6.63949e-32
-2.19138e-31
-1.27596e-57
6.39741e-58
-6.64558e-57
2.80397e-56
-1.22392e-55
5.01039e-55
-1.92936e-54
6.88919e-54
-2.23167e-53
6.27669e-53
-1.36313e-52
1.14018e-52
9.23799e-52
-7.19222e-51
3.38972e-50
-1.25274e-49
3.78675e-49
-9.07881e-49
1.46855e-48
-5.96059e-50
-1.01681e-47
4.28123e-47
-1.01668e-46
1.01222e-46
3.06156e-46
-1.75503e-45
3.96392e-45
-1.54907e-45
-2.0539e-44
7.07245e-44
-7.10056e-44
-2.48447e-43
1.06862e-42
-1.05717e-42
-4.0509e-42
1.49459e-41
-5.78587e-42
-7.69802e-41
1.6606e-40
1.80502e-40
-1.20991e-39
5.69315e-40
6.11179e-39
-9.55845e-39
-2.49149e-38
7.15481e-38
8.8315e-38
-4.28281e-37
-3.04371e-37
2.32424e-36
1.30488e-36
-1.19451e-35
-8.34419e-36
5.79538e-35
6.48927e-35
-2.51607e-34
-4.82452e-34
8.34901e-34
3.06352e-33
-7.50189e-34
-1.51289e-32
-1.60562e-32
4.58574e-32
1.42068e-31
3.35074e-32
-5.55401e-31
-1.1938e-30
-7.76913e-32
4.72509e-30
1.08643e-29
6.92397e-30
-2.45604e-29
-8.82023e-29
-1.44351e-28
-8.72119e-29
2.35973e-28
9.50125e-28
2.0489e-27
3.32783e-27
4.41757e-27
4.92675e-27
4.62868e-27
3.5849e-27
2.12768e-27
7.07692e-28
-3.05712e-28
-7.62025e-28
-7.42546e-28
-4.65458e-28
-1.55139e-28
5.04836e-29
1.2119e-28
9.9038e-29
4.51932e-29
2.37461e-30
-1.55943e-29
-1.47867e-29
-7.04922e-30
-5.42231e-31
1.91902e-30
1.11089e-56
-5.63365e-57
5.82e-56
-2.46297e-55
1.07801e-54
-4.42949e-54
1.71418e-53
-6.1647e-53
2.01948e-52
-5.79674e-52
1.32267e-51
-1.51478e-51
-6.17143e-51
5.64193e-50
-2.76429e-49
1.04064e-48
-3.18379e-48
7.71601e-48
-1.26955e-47
1.38313e-48
8.42613e-47
-3.60929e-46
8.66225e-46
-8.85328e-46
-2.52918e-45
1.48235e-44
-3.38201e-44
1.40889e-44
1.7265e-43
-6.0104e-43
6.13976e-43
2.08536e-42
-9.07813e-42
9.11668e-42
3.41347e-41
-1.27149e-40
5.09149e-41
6.51993e-40
-1.41662e-39
-1.51558e-39
1.02854e-38
-4.92902e-39
-5.18663e-38
8.15803e-38
2.11169e-37
-6.09213e-37
-7.47762e-37
3.64355e-36
2.57645e-36
-1.97664e-35
-1.10663e-35
1.01569e-34
7.09634e-35
-4.92635e-34
-5.52555e-34
2.13716e-33
4.10769e-33
-7.07589e-33
-2.60613e-32
6.20768e-33
1.28477e-31
1.3731e-31
-3.87659e-31
-1.20836e-30
-2.98028e-31
4.69747e-30
1.01644e-29
8.19679e-31
-3.98573e-29
-9.23316e-29
-6.02671e-29
2.047e-28
7.44146e-28
1.22783e-27
7.68008e-28
-1.9209e-27
-7.89363e-27
-1.71029e-26
-2.78346e-26
-3.69859e-26
-4.1266e-26
-3.87674e-26
-3.00066e-26
-1.77767e-26
-5.86603e-27
2.62317e-27
6.43025e-27
6.24382e-27
3.90137e-27
1.28915e-27
-4.36212e-28
-1.0248e-27
-8.33544e-28
-3.78217e-28
-1.78054e-29
1.32496e-28
1.24759e-28
5.91263e-29
4.25512e-30
-1.62901e-29
-9.36232e-56
4.80155e-56
-4.93358e-55
2.09395e-54
-9.18925e-54
3.78931e-53
-1.47341e-52
5.33454e-52
-1.76573e-51
5.16171e-51
-1.22768e-50
1.71014e-50
3.64921e-50
-4.24159e-49
2.17514e-48
-8.3574e-48
2.59017e-47
-6.34874e-47
1.06289e-46
-1.88651e-47
-6.74888e-46
2.94475e-45
-7.1459e-45
7.49916e-45
2.01872e-44
-1.21181e-43
2.79409e-43
-1.23854e-43
-1.40424e-42
4.94529e-42
-5.14248e-42
-1.69342e-41
7.4666e-41
-7.61552e-41
-2.7835e-40
1.04735e-39
-4.34022e-40
-5.34555e-39
1.17029e-38
1.2311e-38
-8.46581e-38
4.13478e-38
4.26127e-37
-6.74322e-37
-1.73261e-36
5.02313e-36
6.12838e-36
-3.00148e-35
-2.11084e-35
1.62773e-34
9.08387e-35
-8.36254e-34
-5.84263e-34
4.0549e-33
4.55554e-33
-1.75776e-32
-3.3865e-32
5.80644e-32
2.14678e-31
-4.96668e-32
-1.05643e-30
-1.1372e-30
3.17255e-30
9.95207e-30
2.56569e-30
-3.8463e-29
-8.38063e-29
-8.11044e-30
3.2543e-28
7.59826e-28
5.08176e-28
-1.64993e-27
-6.07698e-27
-1.01133e-26
-6.55124e-27
1.50797e-26
6.33995e-26
1.38076e-25
2.25207e-25
2.99568e-25
3.34383e-25
3.1412e-25
2.4297e-25
1.43659e-25
4.69958e-26
-2.18023e-26
-5.25211e-26
-5.08072e-26
-3.16373e-26
-1.03565e-26
3.65138e-27
8.38903e-27
6.78939e-27
3.06201e-27
1.26102e-28
-1.09005e-27
-1.01888e-27
-4.7984e-28
-3.19822e-29
1.33892e-28
7.62789e-55
-3.95572e-55
4.04287e-54
-1.72082e-53
7.57125e-53
-3.13287e-52
1.2237e-51
-4.45868e-51
1.49007e-50
-4.42823e-50
1.09118e-49
-1.74181e-49
-1.7275e-49
3.04449e-48
-1.64858e-47
6.47966e-47
-2.03631e-46
5.05077e-46
-8.60707e-46
2.11957e-46
5.21688e-45
-2.3221e-44
5.70054e-44
-6.14418e-44
-1.5544e-43
9.57582e-43
-2.23241e-42
1.05133e-42
1.10364e-41
-3.93447e-41
4.16701e-41
1.32862e-40
-5.93818e-40
6.15463e-40
2.19363e-39
-8.34279e-39
3.57976e-39
4.23715e-38
-9.35082e-38
-9.66121e-38
6.73831e-37
-3.35669e-37
-3.38516e-36
5.39139e-36
1.37439e-35
-4.00568e-35
-4.85533e-35
2.39124e-34
1.67161e-34
-1.29631e-33
-7.20794e-34
6.65867e-33
4.65102e-33
-3.22781e-32
-3.63195e-32
1.39814e-31
2.70005e-31
-4.60771e-31
-1.71022e-30
3.83709e-31
8.40065e-30
9.10972e-30
-2.51039e-29
-7.92712e-29
-2.13533e-29
3.04507e-28
6.68308e-28
7.58644e-29
-2.56868e-27
-6.04722e-27
-4.14602e-27
1.28433e-26
4.79752e-26
8.05655e-26
5.40671e-26
-1.13942e-25
-4.91566e-25
-1.07663e-24
-1.76021e-24
-2.34412e-24
-2.6178e-24
-2.45901e-24
-1.90066e-24
-1.12138e-24
-3.63367e-25
1.75312e-25
4.14698e-25
3.9956e-25
2.47886e-25
8.0321e-26
-2.95735e-26
-6.63951e-26
-5.345e-26
-2.39491e-26
-8.33518e-28
8.67268e-27
8.04383e-27
3.76283e-27
2.29278e-28
-1.06423e-27
-5.99941e-54
3.14569e-54
-3.19808e-53
1.36507e-52
-6.02112e-52
2.49976e-51
-9.8066e-51
3.5947e-50
-1.21214e-49
3.65656e-49
-9.29026e-49
1.64085e-48
3.92079e-49
-2.07596e-47
1.20111e-46
-4.8424e-46
1.54476e-45
-3.87966e-45
6.73223e-45
-2.12272e-45
-3.88558e-44
1.76723e-43
-4.39143e-43
4.86263e-43
1.15264e-42
-7.30388e-42
1.72259e-41
-8.60711e-42
-8.36932e-41
3.02262e-40
-3.26231e-40
-1.00565e-39
4.56023e-39
-4.80578e-39
-1.66834e-38
6.41767e-38
-2.85307e-38
-3.24247e-37
7.21656e-37
7.31373e-37
-5.17932e-36
2.63378e-36
2.5966e-35
-4.16394e-35
-1.05258e-34
3.08523e-34
3.71335e-34
-1.83991e-33
-1.27771e-33
9.97042e-33
5.5207e-33
-5.12056e-32
-3.57471e-32
2.48153e-31
2.79625e-31
-1.07406e-30
-2.07906e-30
3.53118e-30
1.31583e-29
-2.8583e-30
-6.45141e-29
-7.04894e-29
1.91803e-28
6.09836e-28
1.71582e-28
-2.32773e-27
-5.14752e-27
-6.73835e-28
1.95732e-26
4.64825e-26
3.26859e-26
-9.64043e-26
-3.65631e-25
-6.19904e-25
-4.31154e-25
8.26813e-25
3.67345e-24
8.09588e-24
1.32705e-23
1.76949e-23
1.97711e-23
1.85707e-23
1.43426e-23
8.44231e-24
2.70704e-24
-1.36202e-24
-3.16094e-24
-3.03251e-24
-1.87388e-24
-6.00428e-25
2.31453e-25
5.07357e-25
4.0613e-25
1.80696e-25
5.03664e-27
-6.66407e-26
-6.13042e-26
-2.84714e-26
-1.559e-27
8.16901e-27
4.5478e-53
-2.41092e-53
2.43825e-52
-1.04364e-51
4.6146e-51
-1.92203e-50
7.57174e-50
-2.7914e-49
9.4919e-49
-2.90274e-48
7.57501e-48
-1.44721e-47
4.26974e-48
1.33555e-46
-8.39284e-46
3.48207e-45
-1.12897e-44
2.87294e-44
-5.07854e-44
1.95369e-44
2.78341e-43
-1.29599e-42
3.26185e-42
-3.71185e-42
-8.21538e-42
5.36892e-41
-1.28175e-40
6.78741e-41
6.11401e-40
-2.23884e-39
2.46398e-39
7.33138e-39
-3.37645e-38
3.62037e-38
1.22254e-37
-4.7603e-37
2.19418e-37
2.39182e-36
-5.37144e-36
-5.33202e-36
3.83864e-35
-1.99455e-35
-1.92023e-34
3.102e-34
7.77079e-34
-2.29173e-33
-2.7372e-33
1.36524e-32
9.41136e-33
-7.39521e-32
-4.075e-32
3.79735e-31
2.64857e-31
-1.8398e-30
-2.07582e-30
7.95689e-30
1.54378e-29
-2.60961e-29
-9.76309e-29
2.04975e-29
4.7777e-28
5.26072e-28
-1.41287e-27
-4.52441e-27
-1.32921e-27
1.71553e-26
3.82382e-26
5.69684e-27
-1.43765e-25
-3.44565e-25
-2.48643e-25
6.96614e-25
2.68599e-24
4.60021e-24
3.31747e-24
-5.74673e-24
-2.64114e-23
-5.86108e-23
-9.6347e-23
-1.28646e-22
-1.43822e-22
-1.3508e-22
-1.04236e-22
-6.11983e-23
-1.93959e-23
1.0209e-23
2.32233e-23
2.21772e-23
1.36449e-23
4.31862e-24
-1.74788e-24
-3.73754e-24
-2.97377e-24
-1.31304e-24
-2.66705e-26
4.93809e-25
4.5034e-25
2.07533e-25
9.9747e-27
-6.04666e-26
-3.31673e-52
1.77777e-52
-1.78851e-51
7.67643e-51
-3.40242e-50
1.42161e-49
-5.62301e-49
2.08432e-48
-7.14358e-48
2.21219e-47
-5.91103e-47
1.20273e-46
-8.34487e-47
-8.02495e-46
5.60963e-45
-2.40455e-44
7.93473e-44
-2.04744e-43
3.68866e-43
-1.67648e-43
-1.91373e-42
9.14193e-42
-2.33214e-41
2.72842e-41
5.61585e-41
-3.79683e-40
9.18154e-40
-5.14806e-40
-4.29492e-39
1.59613e-38
-1.79249e-38
-5.13837e-38
2.40626e-37
-2.62705e-37
-8.6164e-37
3.39904e-36
-1.62578e-36
-1.69781e-35
3.84963e-35
3.73663e-35
-2.73868e-34
1.45558e-34
1.36676e-33
-2.2254e-33
-5.52071e-33
1.63905e-32
1.94125e-32
-9.75317e-32
-6.66847e-32
5.28085e-31
2.89361e-31
-2.71122e-30
-1.88847e-30
1.31325e-29
1.48336e-29
-5.67533e-29
-1.10359e-28
1.85672e-28
6.97424e-28
-1.41265e-28
-3.4064e-27
-3.78056e-27
1.00176e-26
3.23185e-26
9.91154e-27
-1.21696e-25
-2.73507e-25
-4.58944e-26
1.01615e-24
2.4592e-24
1.82217e-24
-4.83675e-24
-1.89875e-23
-3.28704e-23
-2.45912e-23
3.81379e-23
1.82335e-22
4.07755e-22
6.72396e-22
8.99164e-22
1.00586e-21
9.44647e-22
7.2826e-22
4.26369e-22
1.33381e-22
-7.37088e-23
-1.64179e-22
-1.56005e-22
-9.55358e-23
-2.98279e-23
1.27163e-23
2.64989e-23
2.09473e-23
9.1727e-24
1.10266e-25
-3.5229e-24
-3.18331e-24
-1.45474e-24
-5.93211e-26
4.30882e-25
2.32254e-51
-1.25879e-51
1.25973e-50
-5.4217e-50
2.40875e-49
-1.00954e-48
4.00874e-48
-1.49374e-47
5.15767e-47
-1.61584e-46
4.4095e-46
-9.44917e-46
9.48081e-46
4.43072e-45
-3.57515e-44
1.59107e-43
-5.35239e-43
1.40158e-42
-2.57475e-42
1.35125e-42
1.25997e-41
-6.19087e-41
1.60199e-40
-1.92769e-40
-3.67249e-40
2.57816e-39
-6.31981e-39
3.74934e-39
2.89535e-38
-1.09322e-37
1.25372e-37
3.4552e-37
-1.64746e-36
1.83287e-36
5.82919e-36
-2.33203e-35
1.15859e-35
1.15751e-34
-2.65169e-34
-2.51183e-34
1.87741e-33
-1.0219e-33
-9.3455e-33
1.53471e-32
3.76717e-32
-1.12664e-31
-1.32205e-31
6.69598e-31
4.53612e-31
-3.62393e-30
-1.9727e-30
1.86027e-29
1.2933e-29
-9.00873e-29
-1.01844e-28
3.8903e-28
7.58105e-28
-1.26955e-27
-4.78778e-27
9.33909e-28
2.33395e-26
2.61134e-26
-6.82419e-26
-2.21866e-25
-7.10125e-26
8.29406e-25
1.88029e-24
3.52384e-25
-6.89857e-24
-1.68682e-23
-1.2842e-23
3.22011e-23
1.28921e-22
2.25748e-22
1.75309e-22
-2.4073e-22
-1.20596e-21
-2.72031e-21
-4.50154e-21
-6.02975e-21
-6.74987e-21
-6.33856e-21
-4.88152e-21
-2.84904e-21
-8.78274e-22
5.11711e-22
1.11476e-21
1.05357e-21
6.41892e-22
1.9739e-22
-8.89696e-23
-1.80481e-22
-1.41676e-22
-6.1479e-23
-1.7709e-25
2.4153e-23
2.16116e-23
9.78699e-24
3.21116e-25
-2.95056e-24
-1.558e-50
8.5402e-51
-8.50085e-50
3.66871e-49
-1.63376e-48
6.86808e-48
-2.73762e-47
1.02523e-46
-3.56504e-46
1.12899e-45
-3.13987e-45
7.02754e-45
-8.79075e-45
-2.18096e-44
2.16443e-43
-1.00627e-42
3.45739e-42
-9.19615e-42
1.72355e-41
-1.02679e-41
-7.92215e-41
4.01585e-40
-1.05501e-39
1.30642e-39
2.29079e-39
-1.67725e-38
4.17118e-38
-2.61713e-38
-1.86885e-37
7.17816e-37
-8.41391e-37
-2.2239e-36
1.08134e-35
-1.22708e-35
-3.77689e-35
1.53414e-34
-7.92592e-35
-7.56321e-34
1.75192e-33
1.61578e-33
-1.23402e-32
6.88868e-33
6.12585e-32
-1.01537e-31
-2.46374e-31
7.42773e-31
8.62676e-31
-4.40884e-30
-2.9556e-30
2.385e-29
1.28828e-29
-1.22413e-28
-8.48842e-29
5.92696e-28
6.70403e-28
-2.55765e-27
-4.99406e-27
8.32554e-27
3.15218e-26
-5.91048e-27
-1.53364e-25
-1.73012e-25
4.45729e-25
1.46083e-24
4.87869e-25
-5.41976e-24
-1.2399e-23
-2.57742e-24
4.48908e-23
1.10973e-22
8.68664e-23
-2.05076e-22
-8.39e-22
-1.48717e-21
-1.19961e-21
1.43816e-21
7.62183e-21
1.73621e-20
2.88431e-20
3.87067e-20
4.33624e-20
4.07161e-20
3.13205e-20
1.82163e-20
5.52257e-21
-3.4091e-21
-7.25432e-21
-6.8161e-21
-4.12937e-21
-1.24837e-21
5.97454e-22
1.1784e-21
9.18067e-22
3.94437e-22
-2.86381e-24
-1.58815e-22
-1.40621e-22
-6.30545e-23
-1.5165e-24
1.93762e-23
9.98583e-50
-5.53764e-50
5.48188e-49
-2.3724e-48
1.05896e-47
-4.46504e-47
1.78641e-46
-6.72273e-46
2.35346e-45
-7.52853e-45
2.13007e-44
-4.94786e-44
7.19301e-44
8.93012e-44
-1.23894e-42
6.06519e-42
-2.13313e-41
5.76914e-41
-1.10381e-40
7.36747e-41
4.74217e-40
-2.48894e-39
6.64499e-39
-8.47308e-39
-1.35824e-38
1.04281e-37
-2.63358e-37
1.74712e-37
1.15196e-36
-4.50761e-36
5.40574e-36
1.36643e-35
-6.78804e-35
7.86531e-35
2.33769e-34
-9.65419e-34
5.19379e-34
4.72462e-33
-1.10762e-32
-9.91855e-33
7.75901e-32
-4.44931e-32
-3.84009e-31
6.43007e-31
1.54052e-30
-4.68607e-30
-5.38009e-30
2.77762e-29
1.83984e-29
-1.50185e-28
-8.03813e-29
7.70748e-28
5.32617e-28
-3.73126e-27
-4.22096e-27
1.60906e-26
3.14748e-26
-5.22463e-26
-1.98574e-25
3.57299e-26
9.64259e-25
1.09696e-24
-2.78502e-24
-9.204e-24
-3.20671e-24
3.38773e-23
7.82467e-23
1.79387e-23
-2.79336e-22
-6.98627e-22
-5.62714e-22
1.24596e-21
5.22099e-21
9.37629e-21
7.86231e-21
-8.0788e-21
-4.5893e-20
-1.05723e-19
-1.7641e-19
-2.37231e-19
-2.65991e-19
-2.49732e-19
-1.91855e-19
-1.11149e-19
-3.30562e-20
2.17469e-20
4.51363e-20
4.2139e-20
2.53702e-20
7.52309e-21
-3.84226e-21
-7.35854e-21
-5.68598e-21
-2.41616e-21
4.49241e-23
9.99215e-22
8.74851e-22
3.88056e-22
5.57231e-24
-1.21744e-22
-6.09648e-49
3.42182e-49
-3.36807e-48
1.46174e-47
-6.54008e-47
2.76584e-46
-1.11065e-45
4.19954e-45
-1.47967e-44
4.77846e-44
-1.3734e-43
3.29464e-43
-5.34863e-43
-2.37062e-43
6.66519e-42
-3.47224e-41
1.25331e-40
-3.45065e-40
6.74456e-40
-4.99195e-40
-2.69246e-39
1.46958e-38
-3.99182e-38
5.24514e-38
7.62248e-38
-6.17834e-37
1.58628e-36
-1.1127e-36
-6.76046e-36
2.69965e-35
-3.31625e-35
-7.9898e-35
4.06409e-34
-4.81436e-34
-1.37807e-33
5.79581e-33
-3.25219e-33
-2.81376e-32
6.6835e-32
5.79138e-32
-4.65413e-31
2.74682e-31
2.29579e-30
-3.88764e-30
-9.18368e-30
2.82166e-29
3.19752e-29
-1.66998e-28
-1.09089e-28
9.0249e-28
4.77731e-28
-4.63118e-27
-3.18575e-27
2.24179e-26
2.53492e-26
-9.66158e-26
-1.89274e-25
3.12942e-25
1.19378e-24
-2.05822e-25
-5.78583e-24
-6.63832e-24
1.66029e-23
5.53465e-23
2.01127e-23
-2.02027e-22
-4.71335e-22
-1.18609e-22
1.65768e-21
4.19785e-21
3.48215e-21
-7.19903e-21
-3.0983e-20
-5.64306e-20
-4.92347e-20
4.22836e-20
2.62339e-19
6.12269e-19
1.02678e-18
1.38404e-18
1.55332e-18
1.45819e-18
1.11861e-18
6.45183e-19
1.87641e-19
-1.32495e-19
-2.67784e-19
-2.48245e-19
-1.48423e-19
-4.30499e-20
2.36046e-20
4.38288e-20
3.35643e-20
1.40886e-20
-4.41892e-22
-5.99986e-21
-5.18983e-21
-2.27473e-21
-8.10142e-24
7.29966e-22
3.53239e-48
-2.00804e-48
1.96462e-47
-8.5515e-47
3.83523e-46
-1.62683e-45
6.55665e-45
-2.49073e-44
8.83081e-44
-2.87761e-43
8.39145e-43
-2.07085e-42
3.66103e-42
-4.21495e-43
-3.34328e-41
1.88041e-40
-6.98808e-40
1.96128e-39
-3.91933e-39
3.19057e-39
1.44347e-38
-8.23805e-38
2.27972e-37
-3.08956e-37
-4.02765e-37
3.47645e-36
-9.08623e-36
6.74148e-36
3.76394e-35
-1.5371e-34
1.93673e-34
4.42954e-34
-2.31329e-33
2.80579e-33
7.71021e-33
-3.30896e-32
1.9405e-32
1.59236e-31
-3.83736e-31
-3.20405e-31
2.65496e-30
-1.6164e-30
-1.30482e-29
2.23742e-29
5.20252e-29
-1.61669e-28
-1.80485e-28
9.55256e-28
6.13897e-28
-5.15958e-27
-2.69489e-27
2.64754e-26
1.81032e-26
-1.28157e-25
-1.44746e-25
5.52039e-25
1.08266e-24
-1.78385e-24
-6.82787e-24
1.12691e-24
3.30314e-23
3.82248e-23
-9.41533e-23
-3.16685e-22
-1.20012e-22
1.14594e-21
2.70195e-21
7.43364e-22
-9.3527e-21
-2.40027e-20
-2.05245e-20
3.94114e-20
1.74791e-19
3.23238e-19
2.93753e-19
-2.03351e-19
-1.41765e-18
-3.35971e-18
-5.667e-18
-7.65935e-18
-8.60554e-18
-8.07743e-18
-6.18606e-18
-3.54978e-18
-1.00549e-18
7.68742e-19
1.51007e-18
1.389e-18
8.24004e-19
2.3295e-19
-1.38127e-19
-2.48226e-19
-1.88228e-19
-7.79267e-20
3.57718e-21
3.42789e-20
2.92643e-20
1.2658e-20
-1.08503e-22
-4.16407e-21
-1.93387e-47
1.11449e-47
-1.08334e-46
4.73007e-46
-2.1266e-45
9.04835e-45
-3.66023e-44
1.39689e-43
-4.9829e-43
1.63778e-42
-4.84091e-42
1.22518e-41
-2.31914e-41
1.22661e-41
1.54612e-40
-9.58617e-40
3.68214e-39
-1.05515e-38
2.15784e-38
-1.91953e-38
-7.2665e-38
4.36648e-37
-1.23299e-36
1.72539e-36
1.99015e-36
-1.85034e-35
4.93088e-35
-3.87251e-35
-1.97959e-34
8.28854e-34
-1.073e-33
-2.31803e-33
1.2471e-32
-1.55152e-32
-4.0771e-32
1.78995e-31
-1.09974e-31
-8.52979e-31
2.08893e-30
1.67163e-30
-1.43503e-29
9.0378e-30
7.02347e-29
-1.2215e-28
-2.78977e-28
8.78294e-28
9.63616e-28
-5.18017e-27
-3.26484e-27
2.79633e-26
1.43665e-26
-1.43488e-25
-9.73403e-26
6.94634e-25
7.82875e-25
-2.99103e-24
-5.86923e-24
9.64393e-24
3.70218e-23
-5.84854e-24
-1.78792e-22
-2.08685e-22
5.06126e-22
1.71812e-21
6.78858e-22
-6.16063e-21
-1.46888e-20
-4.40363e-21
4.99874e-20
1.30144e-19
1.14843e-19
-2.0353e-19
-9.34016e-19
-1.75611e-18
-1.66443e-18
8.77668e-19
7.20428e-18
1.73898e-17
2.95319e-17
4.0039e-17
4.50419e-17
4.2271e-17
3.23108e-17
1.84313e-17
5.0572e-18
-4.23322e-18
-8.0641e-18
-7.35301e-18
-4.32352e-18
-1.18592e-18
7.67316e-19
1.33192e-18
9.99011e-19
4.0717e-19
-2.55116e-20
-1.85687e-19
-1.56273e-19
-6.65999e-20
1.48809e-21
2.25193e-20
9.94843e-47
-5.82043e-47
5.61736e-46
-2.46081e-45
1.10922e-44
-4.73463e-44
1.92248e-43
-7.37118e-43
2.64532e-42
-8.76751e-42
2.62469e-41
-6.79605e-41
1.36111e-40
-1.15593e-40
-6.47952e-40
4.57219e-39
-1.82419e-38
5.3474e-38
-1.12043e-37
1.08362e-37
3.41019e-37
-2.17744e-36
6.28625e-36
-9.09585e-36
-9.11151e-36
9.27029e-35
-2.52372e-34
2.10065e-34
9.78337e-34
-4.21354e-33
5.61583e-33
1.13872e-32
-6.33867e-32
8.10685e-32
2.02718e-31
-9.13326e-31
5.89723e-31
4.30461e-30
-1.07355e-29
-8.17561e-30
7.31685e-29
-4.78348e-29
-3.56418e-28
6.29993e-28
1.4094e-27
-4.50514e-27
-4.84223e-27
2.65175e-26
1.63218e-26
-1.43058e-25
-7.19932e-26
7.34129e-25
4.92822e-25
-3.55479e-24
-3.99246e-24
1.53037e-23
3.00231e-23
-4.92485e-23
-1.89491e-22
2.86925e-23
9.13702e-22
1.07554e-21
-2.56834e-21
-8.80133e-21
-3.6248e-21
3.12587e-20
7.54128e-20
2.45688e-20
-2.51999e-19
-6.66369e-19
-6.07579e-19
9.86163e-19
4.70691e-18
9.01198e-18
8.9218e-18
-3.24155e-18
-3.42018e-17
-8.44347e-17
-1.44552e-16
-1.96703e-16
-2.21607e-16
-2.07936e-16
-1.58581e-16
-8.98276e-17
-2.36969e-17
2.20356e-17
4.06003e-17
3.66563e-17
2.13346e-17
5.64359e-18
-4.03044e-18
-6.74162e-18
-4.99517e-18
-1.99959e-18
1.64455e-19
9.497e-19
7.86807e-19
3.29744e-19
-1.25859e-20
-1.14969e-19
-4.77458e-46
2.84182e-46
-2.72039e-45
1.19611e-44
-5.40656e-44
2.31559e-43
-9.43952e-43
3.63667e-42
-1.31306e-41
4.38785e-41
-1.32967e-40
3.51577e-40
-7.38659e-40
8.17171e-40
2.38873e-39
-2.02421e-38
8.44251e-38
-2.53765e-37
5.45549e-37
-5.71492e-37
-1.47762e-36
1.01519e-35
-3.00385e-35
4.50248e-35
3.81392e-35
-4.34513e-34
1.21146e-33
-1.07083e-33
-4.51318e-33
2.00791e-32
-2.76249e-32
-5.21409e-32
3.02047e-31
-3.98258e-31
-9.41588e-31
4.3719e-30
-2.97855e-30
-2.03463e-29
5.18155e-29
3.71919e-29
-3.50014e-28
2.38586e-28
1.69562e-27
-3.05431e-27
-6.66902e-27
2.1707e-26
2.27589e-26
-1.27477e-25
-7.61852e-26
6.87262e-25
3.36809e-25
-3.52745e-24
-2.33486e-24
1.70881e-23
1.90896e-23
-7.35729e-23
-1.44141e-22
2.36407e-22
9.10786e-22
-1.32706e-22
-4.38615e-21
-5.20556e-21
1.22416e-20
4.23535e-20
1.8175e-20
-1.4893e-19
-3.63796e-19