/*--------------------------------*- C++ -*----------------------------------*\
  =========                 |
  \\      /  F ield         | OpenFOAM: The Open Source CFD Toolbox
   \\    /   O peration     | Website:  https://openfoam.org
    \\  /    A nd           | Version:  13
     \\/     M anipulation  |
\*---------------------------------------------------------------------------*/
FoamFile
{
    format      ascii;
    class       volScalarField;
    location    "9";
    object      T;
}
// * * * * * * * * * * * * * * * * * * * * * * * * * * * * * * * * * * * * * //

dimensions      [0 0 0 1 0 0 0];

internalField   nonuniform List<scalar> 
10000
(
3.376e-23
-4.26745e-23
-2.42892e-22
-3.95483e-22
4.5624e-23
1.68696e-21
3.82553e-21
2.54745e-21
-8.56751e-21
-3.00094e-20
-3.97585e-20
1.48316e-20
1.78661e-19
3.74896e-19
2.74239e-19
-6.30632e-19
-2.44109e-18
-3.76846e-18
-1.08005e-18
9.51878e-18
2.63567e-17
3.40218e-17
1.74406e-18
-9.77051e-17
-2.41474e-16
-3.02689e-16
-5.00295e-17
7.18422e-16
1.879e-15
2.64876e-15
1.53674e-15
-3.01897e-15
-1.11708e-14
-1.9816e-14
-2.1646e-14
-6.7016e-15
3.26456e-14
9.42448e-14
1.59517e-13
1.92104e-13
1.45076e-13
-2.39719e-14
-3.35409e-13
-7.75941e-13
-1.2995e-12
-1.84131e-12
-2.3385e-12
-2.74671e-12
-3.04454e-12
-3.22506e-12
-3.28203e-12
-3.20177e-12
-2.96775e-12
-2.57593e-12
-2.05109e-12
-1.45252e-12
-8.63027e-13
-3.6513e-13
-1.54131e-14
1.70864e-13
2.18691e-13
1.78004e-13
1.02681e-13
3.34085e-14
-9.81864e-15
-2.54551e-14
-2.25071e-14
-1.21488e-14
-2.36897e-15
3.51204e-15
5.64844e-15
5.63464e-15
4.96777e-15
4.44065e-15
4.22703e-15
4.2124e-15
4.2548e-15
4.28395e-15
4.29084e-15
4.28803e-15
4.28514e-15
4.2844e-15
4.28468e-15
4.28495e-15
4.28499e-15
4.28495e-15
4.28493e-15
4.28493e-15
4.28493e-15
4.28494e-15
4.28493e-15
4.28493e-15
4.28493e-15
4.28493e-15
4.28493e-15
4.28493e-15
4.28493e-15
4.28493e-15
4.28493e-15
4.28493e-15
-4.26745e-23
-2.54228e-22
-2.93539e-22
3.46249e-22
2.027e-21
3.43721e-21
1.31305e-22
-1.31997e-20
-3.21127e-20
-2.64986e-20
5.7494e-20
2.36654e-19
3.58628e-19
9.12338e-21
-1.25414e-18
-3.05957e-18
-3.06394e-18
2.99068e-18
1.75029e-17
3.25874e-17
2.23349e-17
-4.97306e-17
-1.91107e-16
-3.11826e-16
-1.79908e-16
4.91594e-16
1.7281e-15
2.80775e-15
1.97972e-15
-2.95098e-15
-1.26247e-14
-2.30585e-14
-2.34628e-14
1.66479e-15
6.31355e-14
1.50926e-13
2.18428e-13
1.80592e-13
-5.98028e-14
-5.53096e-13
-1.22586e-12
-1.82253e-12
-1.9113e-12
-9.85083e-13
1.35202e-12
5.17309e-12
1.00855e-11
1.52428e-11
1.9542e-11
2.19538e-11
2.18648e-11
1.92915e-11
1.48766e-11
9.66699e-12
4.76787e-12
1.01309e-12
-1.2272e-12
-2.0514e-12
-1.87646e-12
-1.2215e-12
-5.20235e-13
-2.22009e-14
2.09011e-13
2.33256e-13
1.54252e-13
5.98018e-14
-3.63162e-15
-2.75797e-14
-2.45262e-14
-1.1111e-14
1.32842e-15
8.61067e-15
1.12949e-14
1.1524e-14
1.10493e-14
1.0682e-14
1.05588e-14
1.05666e-14
1.05971e-14
1.06111e-14
1.06117e-14
1.06091e-14
1.06079e-14
1.0608e-14
1.06082e-14
1.06083e-14
1.06083e-14
1.06082e-14
1.06082e-14
1.06082e-14
1.06082e-14
1.06082e-14
1.06082e-14
1.06082e-14
1.06082e-14
1.06082e-14
1.06082e-14
1.06082e-14
1.06082e-14
1.06082e-14
-2.42892e-22
-2.93539e-22
5.77175e-22
2.5462e-21
3.73514e-21
-1.28258e-21
-1.78473e-20
-3.77892e-20
-2.20632e-20
9.03594e-20
3.00282e-19
3.91284e-19
-1.46269e-19
-1.75677e-18
-3.74422e-18
-2.98239e-18
5.57976e-18
2.36752e-17
3.92593e-17
1.85079e-17
-8.12222e-17
-2.58137e-16
-3.81168e-16
-1.4579e-16
7.92543e-16
2.39304e-15
3.60972e-15
2.07705e-15
-5.03708e-15
-1.83089e-14
-3.19248e-14
-3.07082e-14
7.13e-15
9.71567e-14
2.25845e-13
3.26418e-13
2.71703e-13
-9.41875e-14
-8.73009e-13
-1.99066e-12
-3.08117e-12
-3.44433e-12
-2.14037e-12
1.75765e-12
8.80385e-12
1.88328e-11
3.07788e-11
4.2778e-11
5.25754e-11
5.81297e-11
5.82154e-11
5.28029e-11
4.30708e-11
3.10446e-11
1.89991e-11
8.8412e-12
1.68354e-12
-2.27712e-12
-3.58789e-12
-3.19004e-12
-2.04795e-12
-8.84299e-13
-7.75389e-14
2.96972e-13
3.47114e-13
2.36828e-13
9.92424e-14
3.63558e-15
-3.66056e-14
-3.82387e-14
-2.40902e-14
-9.83774e-15
-1.46046e-15
1.47392e-15
1.55728e-15
9.10558e-16
4.70573e-16
3.48128e-16
3.74946e-16
4.15663e-16
4.30387e-16
4.28835e-16
4.2517e-16
4.24008e-16
4.24295e-16
4.24617e-16
4.24662e-16
4.24615e-16
4.24595e-16
4.24599e-16
4.24603e-16
4.24603e-16
4.24602e-16
4.24602e-16
4.24602e-16
4.24602e-16
4.24602e-16
4.24602e-16
4.24602e-16
4.24602e-16
-3.95483e-22
3.46249e-22
2.5462e-21
4.56037e-21
5.19223e-22
-1.69679e-20
-4.23779e-20
-3.50359e-20
7.85518e-20
3.19419e-19
4.71312e-19
-4.11474e-20
-1.79631e-18
-4.16008e-18
-3.71121e-18
5.38185e-18
2.55003e-17
4.35091e-17
2.14516e-17
-8.82442e-17
-2.81148e-16
-4.059e-16
-1.24385e-16
9.16185e-16
2.59064e-15
3.6471e-15
1.52396e-15
-6.43555e-15
-1.98465e-14
-3.12325e-14
-2.43353e-14
2.05566e-14
1.11373e-13
2.22465e-13
2.78511e-13
1.62395e-13
-2.38479e-13
-9.50132e-13
-1.82216e-12
-2.47753e-12
-2.34712e-12
-8.03603e-13
2.6393e-12
8.13604e-12
1.54071e-11
2.37688e-11
3.22786e-11
3.99289e-11
4.5817e-11
4.92499e-11
4.97962e-11
4.73221e-11
4.2037e-11
3.45287e-11
2.57368e-11
1.68178e-11
8.91053e-12
2.87014e-12
-9.25314e-13
-2.61639e-12
-2.73881e-12
-1.99545e-12
-1.02277e-12
-2.37931e-13
1.97412e-13
3.17132e-13
2.48156e-13
1.19451e-13
1.25485e-14
-4.51999e-14
-6.19471e-14
-5.77418e-14
-4.8867e-14
-4.2907e-14
-4.0808e-14
-4.08506e-14
-4.13881e-14
-4.17062e-14
-4.17654e-14
-4.17264e-14
-4.16942e-14
-4.16875e-14
-4.16913e-14
-4.16941e-14
-4.16944e-14
-4.1694e-14
-4.16938e-14
-4.16938e-14
-4.16939e-14
-4.16939e-14
-4.16939e-14
-4.16939e-14
-4.16939e-14
-4.16939e-14
-4.16939e-14
-4.16939e-14
-4.16939e-14
-4.16939e-14
-4.16939e-14
-4.16939e-14
4.56239e-23
2.027e-21
3.73514e-21
5.19224e-22
-1.39878e-20
-3.53277e-20
-2.85607e-20
7.016e-20
2.77373e-19
3.95082e-19
-9.57824e-20
-1.68802e-18
-3.69109e-18
-2.79065e-18
6.34107e-18
2.49205e-17
3.81546e-17
7.76324e-18
-1.07832e-16
-2.85001e-16
-3.40851e-16
7.72102e-17
1.24365e-15
2.76802e-15
2.96366e-15
-9.77904e-16
-1.09254e-14
-2.36629e-14
-2.6884e-14
-5.36139e-16
7.05811e-14
1.72261e-13
2.35853e-13
1.38132e-13
-2.45158e-13
-9.23933e-13
-1.65564e-12
-1.878e-12
-8.27895e-13
2.09098e-12
6.76317e-12
1.18766e-11
1.483e-11
1.22904e-11
1.38781e-12
-1.88321e-11
-4.63449e-11
-7.60989e-11
-1.01237e-10
-1.15259e-10
-1.14303e-10
-9.85677e-11
-7.22584e-11
-4.20611e-11
-1.48234e-11
4.58539e-12
1.44207e-11
1.59194e-11
1.21571e-11
6.55659e-12
1.69904e-12
-1.19355e-12
-2.11592e-12
-1.75443e-12
-9.23054e-13
-1.97305e-13
1.90643e-13
2.68846e-13
1.76778e-13
4.63746e-14
-5.01674e-14
-9.74622e-14
-1.10094e-13
-1.07766e-13
-1.03131e-13
-1.00633e-13
-1.00138e-13
-1.00399e-13
-1.00647e-13
-1.00719e-13
-1.00701e-13
-1.00679e-13
-1.00673e-13
-1.00676e-13
-1.00677e-13
-1.00678e-13
-1.00677e-13
-1.00677e-13
-1.00677e-13
-1.00677e-13
-1.00677e-13
-1.00677e-13
-1.00677e-13
-1.00677e-13
-1.00677e-13
-1.00677e-13
-1.00677e-13
-1.00677e-13
-1.00677e-13
-1.00677e-13
1.68696e-21
3.43721e-21
-1.28258e-21
-1.69679e-20
-3.53277e-20
-1.62616e-20
1.01253e-19
3.06645e-19
3.45862e-19
-3.35775e-19
-2.10903e-18
-3.8486e-18
-1.60411e-18
9.97225e-18
2.98881e-17
3.77551e-17
-1.10983e-17
-1.55231e-16
-3.41946e-16
-3.25158e-16
3.12176e-16
1.80387e-15
3.4524e-15
2.92131e-15
-3.29842e-15
-1.68835e-14
-3.20481e-14
-3.05421e-14
1.5343e-14
1.2341e-13
2.64864e-13
3.27248e-13
1.1578e-13
-5.59915e-13
-1.6943e-12
-2.8433e-12
-2.9811e-12
-6.68146e-13
5.30766e-12
1.48569e-11
2.54327e-11
3.14136e-11
2.4681e-11
-3.29503e-12
-5.82094e-11
-1.39593e-10
-2.38868e-10
-3.40013e-10
-4.23144e-10
-4.70071e-10
-4.69914e-10
-4.22631e-10
-3.39052e-10
-2.37405e-10
-1.37693e-10
-5.60799e-11
-1.23694e-12
2.6373e-11
3.25516e-11
2.59866e-11
1.49405e-11
5.1127e-12
-9.50405e-13
-3.21752e-12
-2.97746e-12
-1.73135e-12
-5.35743e-13
1.62448e-13
3.69644e-13
2.90098e-13
1.27648e-13
-1.34919e-15
-6.66693e-14
-8.48775e-14
-8.22318e-14
-7.61342e-14
-7.28185e-14
-7.21718e-14
-7.25247e-14
-7.28493e-14
-7.29369e-14
-7.29111e-14
-7.28823e-14
-7.2876e-14
-7.28792e-14
-7.28815e-14
-7.28816e-14
-7.28812e-14
-7.28811e-14
-7.28811e-14
-7.28812e-14
-7.28812e-14
-7.28812e-14
-7.28812e-14
-7.28812e-14
-7.28812e-14
-7.28812e-14
-7.28812e-14
-7.28812e-14
-7.28812e-14
3.82553e-21
1.31305e-22
-1.78473e-20
-4.23779e-20
-2.85607e-20
1.01253e-19
3.53858e-19
4.51554e-19
-2.75185e-19
-2.36268e-18
-4.64073e-18
-2.48349e-18
1.07826e-17
3.47926e-17
4.61332e-17
-8.5689e-18
-1.77327e-16
-4.00872e-16
-3.89391e-16
3.50712e-16
2.09237e-15
4.00185e-15
3.33093e-15
-3.95886e-15
-1.95944e-14
-3.65019e-14
-3.34792e-14
2.04255e-14
1.42949e-13
2.97596e-13
3.55493e-13
1.03381e-13
-6.54571e-13
-1.88858e-12
-3.09531e-12
-3.17067e-12
-6.10407e-13
5.82246e-12
1.60275e-11
2.74375e-11
3.43883e-11
2.85468e-11
6.5938e-13
-5.66328e-11
-1.45701e-10
-2.6165e-10
-3.91832e-10
-5.17641e-10
-6.18301e-10
-6.75714e-10
-6.78973e-10
-6.27221e-10
-5.29953e-10
-4.04649e-10
-2.72395e-10
-1.5283e-10
-5.98792e-11
5.03689e-13
3.01595e-11
3.64779e-11
2.91251e-11
1.696e-11
6.0635e-12
-7.91211e-13
-3.49071e-12
-3.36604e-12
-2.03292e-12
-6.70873e-13
1.87057e-13
5.10415e-13
5.02456e-13
3.80649e-13
2.7451e-13
2.21956e-13
2.10059e-13
2.14788e-13
2.20747e-13
2.23314e-13
2.23447e-13
2.22953e-13
2.22677e-13
2.22651e-13
2.22697e-13
2.22721e-13
2.22721e-13
2.22716e-13
2.22714e-13
2.22715e-13
2.22715e-13
2.22715e-13
2.22715e-13
2.22715e-13
2.22715e-13
2.22715e-13
2.22715e-13
2.22715e-13
2.22715e-13
2.22715e-13
2.22715e-13
2.22715e-13
2.54745e-21
-1.31997e-20
-3.77892e-20
-3.50359e-20
7.016e-20
3.06645e-19
4.51554e-19
-1.18986e-19
-2.01417e-18
-4.34852e-18
-2.87088e-18
9.09531e-18
3.20976e-17
4.43966e-17
-6.15109e-18
-1.67759e-16
-3.81288e-16
-3.54967e-16
3.99094e-16
2.10429e-15
3.79317e-15
2.5661e-15
-5.43722e-15
-2.08076e-14
-3.40777e-14
-2.18647e-14
4.40772e-14
1.67099e-13
2.82504e-13
2.34453e-13
-1.73574e-13
-1.01696e-12
-2.01257e-12
-2.35623e-12
-8.6811e-13
3.37836e-12
1.00295e-11
1.65064e-11
1.79154e-11
8.47357e-12
-1.55643e-11
-5.25305e-11
-9.33937e-11
-1.23043e-10
-1.25339e-10
-9.0418e-11
-2.09643e-11
6.60814e-11
1.44171e-10
1.86873e-10
1.78562e-10
1.21111e-10
3.32925e-11
-5.68471e-11
-1.23056e-10
-1.50283e-10
-1.38527e-10
-1.00175e-10
-5.30269e-11
-1.27192e-11
1.21496e-11
2.08598e-11
1.81458e-11
1.04973e-11
3.12937e-12
-1.36858e-12
-2.78987e-12
-2.22852e-12
-9.79613e-13
9.86837e-14
7.06354e-13
9.13651e-13
9.12762e-13
8.57852e-13
8.19337e-13
8.07088e-13
8.08486e-13
8.12101e-13
8.13778e-13
8.13855e-13
8.13535e-13
8.13375e-13
8.13373e-13
8.13405e-13
8.13417e-13
8.13414e-13
8.13411e-13
8.13411e-13
8.13412e-13
8.13412e-13
8.13412e-13
8.13412e-13
8.13412e-13
8.13412e-13
8.13412e-13
8.13412e-13
8.13412e-13
8.13412e-13
8.13412e-13
8.13412e-13
-8.56751e-21
-3.21127e-20
-2.20632e-20
7.85518e-20
2.77373e-19
3.45862e-19
-2.75184e-19
-2.01417e-18
-3.76353e-18
-1.35228e-18
1.09014e-17
3.12466e-17
3.54498e-17
-2.7029e-17
-1.91161e-16
-3.67927e-16
-2.32521e-16
6.84912e-16
2.4409e-15
3.68208e-15
1.05779e-15
-9.16252e-15
-2.56877e-14
-3.45066e-14
-6.46405e-15
8.7161e-14
2.32762e-13
3.2026e-13
1.27965e-13
-5.75981e-13
-1.7681e-12
-2.81518e-12
-2.2976e-12
1.58383e-12
9.7181e-12
2.01054e-11
2.61806e-11
1.71098e-11
-1.83508e-11
-8.41734e-11
-1.67719e-10
-2.33354e-10
-2.24484e-10
-7.73011e-11
2.55467e-10
7.7858e-10
1.43759e-09
2.12161e-09
2.68878e-09
3.0077e-09
3e-09
2.66694e-09
2.08918e-09
1.39966e-09
7.40688e-10
2.22469e-10
-1.02175e-10
-2.40101e-10
-2.40563e-10
-1.68732e-10
-8.17059e-11
-1.48116e-11
2.01175e-11
2.79711e-11
2.07091e-11
9.54008e-12
1.09289e-12
-2.7505e-12
-3.04249e-12
-1.70741e-12
-2.31422e-13
7.25391e-13
1.12734e-12
1.19681e-12
1.15049e-12
1.10335e-12
1.08398e-12
1.08281e-12
1.08629e-12
1.08835e-12
1.08864e-12
1.08836e-12
1.08818e-12
1.08817e-12
1.0882e-12
1.08821e-12
1.08821e-12
1.0882e-12
1.0882e-12
1.0882e-12
1.0882e-12
1.0882e-12
1.0882e-12
1.0882e-12
1.0882e-12
1.0882e-12
1.0882e-12
1.0882e-12
1.0882e-12
1.0882e-12
-3.00094e-20
-2.64986e-20
9.03594e-20
3.19419e-19
3.95082e-19
-3.35775e-19
-2.36268e-18
-4.34852e-18
-1.35228e-18
1.32199e-17
3.6846e-17
4.01178e-17
-3.68306e-17
-2.32401e-16
-4.3295e-16
-2.43749e-16
8.87155e-16
2.97885e-15
4.32179e-15
8.37208e-16
-1.18259e-14
-3.16222e-14
-4.08637e-14
-3.79321e-15
1.13553e-13
2.91472e-13
3.90504e-13
1.34264e-13
-7.63631e-13
-2.26907e-12
-3.58177e-12
-2.89739e-12
2.11803e-12
1.27369e-11
2.66237e-11
3.54643e-11
2.48265e-11
-2.15496e-11
-1.12137e-10
-2.34554e-10
-3.44189e-10
-3.61637e-10
-1.84971e-10
2.82026e-10
1.09188e-09
2.21856e-09
3.54113e-09
4.85687e-09
5.92499e-09
6.52959e-09
6.54146e-09
5.95683e-09
4.8989e-09
3.58136e-09
2.24714e-09
1.10417e-09
2.79259e-10
-1.97377e-10
-3.7693e-10
-3.56939e-10
-2.42077e-10
-1.14463e-10
-2.03881e-11
2.73697e-11
3.78093e-11
2.80356e-11
1.31636e-11
1.83527e-12
-3.58207e-12
-4.45868e-12
-3.22127e-12
-1.71516e-12
-7.50852e-13
-3.77858e-13
-3.43454e-13
-4.10003e-13
-4.61558e-13
-4.77987e-13
-4.75978e-13
-4.71338e-13
-4.69436e-13
-4.69512e-13
-4.69933e-13
-4.70088e-13
-4.70062e-13
-4.70023e-13
-4.70016e-13
-4.70021e-13
-4.70024e-13
-4.70024e-13
-4.70023e-13
-4.70023e-13
-4.70023e-13
-4.70023e-13
-4.70023e-13
-4.70023e-13
-4.70023e-13
-4.70023e-13
-4.70023e-13
-4.70023e-13
-3.97586e-20
5.7494e-20
3.00282e-19
4.71312e-19
-9.57826e-20
-2.10903e-18
-4.64074e-18
-2.87088e-18
1.09014e-17
3.6846e-17
4.7588e-17
-2.09065e-17
-2.2153e-16
-4.57149e-16
-3.23973e-16
7.92666e-16
3.00336e-15
4.5977e-15
1.25895e-15
-1.17558e-14
-3.23939e-14
-4.18285e-14
-2.37883e-15
1.19668e-13
2.97367e-13
3.76476e-13
7.24004e-14
-8.70046e-13
-2.31567e-12
-3.32132e-12
-2.04928e-12
3.49164e-12
1.36522e-11
2.48248e-11
2.8093e-11
1.08452e-11
-3.73674e-11
-1.15613e-10
-2.02704e-10
-2.54101e-10
-2.08992e-10
-7.63295e-12
3.86642e-10
9.70202e-10
1.69519e-09
2.48134e-09
3.23801e-09
3.88564e-09
4.36716e-09
4.64688e-09
4.70264e-09
4.52098e-09
4.10164e-09
3.46955e-09
2.68521e-09
1.84298e-09
1.05319e-09
4.13539e-10
-1.78289e-11
-2.35481e-10
-2.8077e-10
-2.20949e-10
-1.23702e-10
-3.78027e-11
1.42217e-11
3.20852e-11
2.76166e-11
1.4623e-11
2.68298e-12
-4.37564e-12
-6.87937e-12
-6.81391e-12
-5.9919e-12
-5.35562e-12
-5.10179e-12
-5.08664e-12
-5.13841e-12
-5.17339e-12
-5.18147e-12
-5.17799e-12
-5.17452e-12
-5.17365e-12
-5.174e-12
-5.17431e-12
-5.17436e-12
-5.17431e-12
-5.17429e-12
-5.17429e-12
-5.1743e-12
-5.1743e-12
-5.1743e-12
-5.1743e-12
-5.1743e-12
-5.1743e-12
-5.1743e-12
-5.1743e-12
-5.1743e-12
-5.1743e-12
-5.1743e-12
-5.1743e-12
1.48316e-20
2.36654e-19
3.91284e-19
-4.11473e-20
-1.68802e-18
-3.84861e-18
-2.48349e-18
9.09531e-18
3.12466e-17
4.01178e-17
-2.09064e-17
-1.97807e-16
-3.97871e-16
-2.46506e-16
8.09868e-16
2.80043e-15
3.96727e-15
1.32764e-16
-1.28058e-14
-3.13025e-14
-3.45161e-14
1.52301e-14
1.43652e-13
3.00979e-13
2.98693e-13
-1.60794e-13
-1.2506e-12
-2.57472e-12
-2.76697e-12
3.0483e-13
8.12561e-12
1.88987e-11
2.49861e-11
1.31486e-11
-2.94412e-11
-1.02759e-10
-1.79462e-10
-1.98445e-10
-7.84842e-11
2.41887e-10
7.46432e-10
1.29071e-09
1.59406e-09
1.30057e-09
1.06864e-10
-2.08409e-09
-5.05159e-09
-8.25375e-09
-1.09581e-08
-1.24713e-08
-1.23804e-08
-1.0704e-08
-7.88738e-09
-4.64158e-09
-1.69859e-09
4.16454e-10
1.50902e-09
1.70286e-09
1.32116e-09
7.2882e-10
2.05129e-10
-1.13723e-10
-2.21912e-10
-1.89607e-10
-1.03104e-10
-2.49806e-11
1.8274e-11
2.8316e-11
1.94351e-11
5.7404e-12
-4.74439e-12
-1.00646e-11
-1.16071e-11
-1.14435e-11
-1.09623e-11
-1.0684e-11
-1.06202e-11
-1.0644e-11
-1.06706e-11
-1.06792e-11
-1.06778e-11
-1.06754e-11
-1.06747e-11
-1.06749e-11
-1.06751e-11
-1.06752e-11
-1.06751e-11
-1.06751e-11
-1.06751e-11
-1.06751e-11
-1.06751e-11
-1.06751e-11
-1.06751e-11
-1.06751e-11
-1.06751e-11
-1.06751e-11
-1.06751e-11
-1.06751e-11
-1.06751e-11
-1.06751e-11
1.78661e-19
3.58629e-19
-1.46269e-19
-1.79631e-18
-3.69109e-18
-1.60411e-18
1.07826e-17
3.20976e-17
3.54498e-17
-3.68306e-17
-2.2153e-16
-3.97871e-16
-1.53368e-16
1.05821e-15
3.10601e-15
3.84382e-15
-1.33475e-15
-1.62625e-14
-3.51944e-14
-3.25356e-14
3.42127e-14
1.87362e-13
3.52563e-13
2.88987e-13
-3.57696e-13
-1.74377e-12
-3.25691e-12
-3.02728e-12
1.73062e-12
1.27213e-11
2.68686e-11
3.26766e-11
1.0571e-11
-5.81529e-11
-1.72039e-10
-2.85469e-10
-2.95136e-10
-5.79039e-11
5.44411e-10
1.49821e-09
2.54474e-09
3.12162e-09
2.42327e-09
-3.90573e-10
-5.87412e-09
-1.39694e-08
-2.38189e-08
-3.3835e-08
-4.2055e-08
-4.66877e-08
-4.66641e-08
-4.19824e-08
-3.37104e-08
-2.36441e-08
-1.3757e-08
-5.64812e-09
-1.80859e-10
2.59e-09
3.23018e-09
2.59516e-09
1.50348e-09
5.23906e-10
-8.57398e-11
-3.17889e-10
-2.9815e-10
-1.75412e-10
-5.57371e-11
1.51121e-11
3.68571e-11
2.94974e-11
1.34196e-11
4.52935e-13
-6.19656e-12
-8.09467e-12
-7.85648e-12
-7.24519e-12
-6.90607e-12
-6.83713e-12
-6.87173e-12
-6.90477e-12
-6.91398e-12
-6.91148e-12
-6.90854e-12
-6.90787e-12
-6.90819e-12
-6.90843e-12
-6.90844e-12
-6.9084e-12
-6.90839e-12
-6.90839e-12
-6.90839e-12
-6.90839e-12
-6.90839e-12
-6.90839e-12
-6.90839e-12
-6.90839e-12
-6.90839e-12
-6.90839e-12
-6.90839e-12
-6.90839e-12
3.74896e-19
9.12331e-21
-1.75677e-18
-4.16008e-18
-2.79065e-18
9.97225e-18
3.47926e-17
4.43965e-17
-2.7029e-17
-2.32401e-16
-4.57149e-16
-2.46506e-16
1.05821e-15
3.42793e-15
4.56621e-15
-7.90844e-16
-1.74292e-14
-3.96208e-14
-3.8866e-14
3.37595e-14
2.06059e-13
3.9707e-13
3.35736e-13
-3.80552e-13
-1.93251e-12
-3.63388e-12
-3.38865e-12
1.90248e-12
1.40872e-11
2.96694e-11
3.59112e-11
1.14307e-11
-6.38534e-11
-1.87942e-10
-3.11512e-10
-3.24151e-10
-7.31262e-11
5.70427e-10
1.60314e-09
2.77254e-09
3.50837e-09
2.96071e-09
1.74711e-10
-5.6206e-09
-1.4689e-08
-2.65434e-08
-3.9887e-08
-5.2795e-08
-6.31109e-08
-6.8957e-08
-6.9211e-08
-6.38046e-08
-5.37476e-08
-4.08695e-08
-2.73536e-08
-1.52086e-08
-5.83415e-09
1.98927e-10
3.11428e-09
3.68811e-09
2.9106e-09
1.67494e-09
5.84622e-10
-9.24398e-11
-3.53144e-10
-3.34916e-10
-1.9989e-10
-6.45361e-11
1.96305e-11
5.06882e-11
4.92808e-11
3.69851e-11
2.64649e-11
2.13164e-11
2.01799e-11
2.06621e-11
2.1251e-11
2.15013e-11
2.15125e-11
2.14636e-11
2.14365e-11
2.14342e-11
2.14388e-11
2.14411e-11
2.1441e-11
2.14406e-11
2.14404e-11
2.14405e-11
2.14405e-11
2.14405e-11
2.14405e-11
2.14405e-11
2.14405e-11
2.14405e-11
2.14405e-11
2.14405e-11
2.14405e-11
2.14405e-11
2.14405e-11
2.14405e-11
2.74239e-19
-1.25414e-18
-3.74423e-18
-3.71122e-18
6.34108e-18
2.98881e-17
4.61332e-17
-6.15111e-18
-1.91161e-16
-4.3295e-16
-3.23973e-16
8.09869e-16
3.10601e-15
4.56621e-15
9.58404e-17
-1.54741e-14
-3.74956e-14
-3.86309e-14
2.98159e-14
1.96159e-13
3.78367e-13
3.02551e-13
-4.25435e-13
-1.93437e-12
-3.4204e-12
-2.67996e-12
3.20704e-12
1.5192e-11
2.80145e-11
2.72945e-11
-6.98553e-12
-8.6392e-11
-1.91274e-10
-2.51785e-10
-1.54012e-10
2.10011e-10
8.5029e-10
1.58143e-09
1.98587e-09
1.50177e-09
-3.50766e-10
-3.67684e-09
-7.99501e-09
-1.22623e-08
-1.52025e-08
-1.58428e-08
-1.40187e-08
-1.05692e-08
-7.06826e-09
-5.16876e-09
-5.85421e-09
-8.96805e-09
-1.32636e-08
-1.69552e-08
-1.84965e-08
-1.72099e-08
-1.34852e-08
-8.50505e-09
-3.68075e-09
-9.44576e-11
1.81252e-09
2.22655e-09
1.70992e-09
8.81717e-10
1.84109e-10
-1.98307e-10
-2.88534e-10
-2.08418e-10
-8.10645e-11
1.94702e-11
7.20907e-11
8.76456e-11
8.54809e-11
7.9703e-11
7.61406e-11
7.51727e-11
7.54083e-11
7.57701e-11
7.59177e-11
7.5915e-11
7.58821e-11
7.58677e-11
7.58685e-11
7.58717e-11
7.58727e-11
7.58724e-11
7.58721e-11
7.58721e-11
7.58721e-11
7.58721e-11
7.58721e-11
7.58721e-11
7.58721e-11
7.58721e-11
7.58721e-11
7.58721e-11
7.58721e-11
7.58721e-11
7.58721e-11
7.58721e-11
-6.30632e-19
-3.05957e-18
-2.98239e-18
5.38185e-18
2.49205e-17
3.77551e-17
-8.56886e-18
-1.67759e-16
-3.67927e-16
-2.43749e-16
7.92665e-16
2.80043e-15
3.84382e-15
-7.90841e-16
-1.54741e-14
-3.45496e-14
-3.03716e-14
4.31707e-14
2.05316e-13
3.56095e-13
2.02694e-13
-6.35519e-13
-2.17563e-12
-3.34543e-12
-1.59311e-12
6.02164e-12
1.93256e-11
2.9979e-11
1.90204e-11
-3.60888e-11
-1.39759e-10
-2.46534e-10
-2.40546e-10
3.88507e-11
6.96043e-10
1.61226e-09
2.28938e-09
1.84291e-09
-7.15713e-10
-5.86957e-09
-1.28206e-08
-1.89195e-08
-1.97563e-08
-1.02069e-08
1.36789e-08
5.25625e-08
1.02412e-07
1.54654e-07
1.98173e-07
2.22619e-07
2.21819e-07
1.95921e-07
1.51356e-07
9.86308e-08
4.88855e-08
1.05846e-08
-1.24375e-08
-2.10675e-08
-1.94458e-08
-1.28081e-08
-5.58605e-09
-3.78201e-10
2.10415e-09
2.42993e-09
1.64769e-09
6.68595e-10
-9.00244e-12
-2.79382e-10
-2.61624e-10
-1.26661e-10
4.38735e-12
8.37728e-11
1.14582e-10
1.18344e-10
1.13689e-10
1.09717e-10
1.08267e-10
1.08278e-10
1.08593e-10
1.08754e-10
1.08768e-10
1.08741e-10
1.08728e-10
1.08727e-10
1.0873e-10
1.08731e-10
1.08731e-10
1.0873e-10
1.0873e-10
1.0873e-10
1.0873e-10
1.0873e-10
1.0873e-10
1.0873e-10
1.0873e-10
1.0873e-10
1.0873e-10
1.0873e-10
1.0873e-10
1.0873e-10
-2.44109e-18
-3.06394e-18
5.57976e-18
2.55003e-17
3.81546e-17
-1.10983e-17
-1.77327e-16
-3.81288e-16
-2.32521e-16
8.87155e-16
3.00336e-15
3.96727e-15
-1.33475e-15
-1.74292e-14
-3.74956e-14
-3.03716e-14
5.45803e-14
2.35251e-13
3.92297e-13
1.88922e-13
-8.00433e-13
-2.56013e-12
-3.79003e-12
-1.46902e-12
7.81549e-12
2.36484e-11
3.56673e-11
2.05138e-11
-4.9647e-11
-1.80221e-10
-3.13627e-10
-3.00613e-10
7.18227e-11
9.53802e-10
2.20909e-09
3.18183e-09
2.63231e-09
-9.47794e-10
-8.52623e-09
-1.93533e-08
-2.98545e-08
-3.32476e-08
-2.04857e-08
1.72914e-08
8.52991e-08
1.81812e-07
2.9648e-07
4.11372e-07
5.04901e-07
5.57617e-07
5.57928e-07
5.05679e-07
4.12226e-07
2.96966e-07
1.8163e-07
8.44135e-08
1.59249e-08
-2.19681e-08
-3.44968e-08
-3.06607e-08
-1.96879e-08
-8.50326e-09
-7.41561e-10
2.86656e-09
3.35198e-09
2.28912e-09
9.60318e-10
3.52392e-11
-3.55086e-10
-3.7149e-10
-2.3449e-10
-9.60936e-11
-1.45629e-11
1.40885e-11
1.49601e-11
8.67796e-12
4.38691e-12
3.18714e-12
3.44605e-12
3.84321e-12
3.98741e-12
3.9725e-12
3.93672e-12
3.92532e-12
3.92811e-12
3.93126e-12
3.9317e-12
3.93124e-12
3.93105e-12
3.93109e-12
3.93113e-12
3.93113e-12
3.93112e-12
3.93112e-12
3.93112e-12
3.93112e-12
3.93112e-12
3.93112e-12
3.93112e-12
3.93112e-12
-3.76846e-18
2.99068e-18
2.36752e-17
4.35091e-17
7.7632e-18
-1.55231e-16
-4.00872e-16
-3.54967e-16
6.84913e-16
2.97885e-15
4.59769e-15
1.3276e-16
-1.62625e-14
-3.96208e-14
-3.86309e-14
4.31707e-14
2.35251e-13
4.25388e-13
2.5912e-13
-7.43806e-13
-2.62955e-12
-4.07814e-12
-1.87508e-12
7.7092e-12
2.43826e-11
3.72527e-11
2.17163e-11
-5.10063e-11
-1.84953e-10
-3.17646e-10
-2.94187e-10
9.63078e-11
9.84151e-10
2.19682e-09
3.05278e-09
2.35113e-09
-1.26379e-09
-8.51158e-09
-1.84468e-08
-2.76242e-08
-2.99831e-08
-1.78127e-08
1.62552e-08
7.67566e-08
1.63249e-07
2.69314e-07
3.83122e-07
4.89463e-07
5.72686e-07
6.19802e-07
6.23098e-07
5.81735e-07
5.02041e-07
3.9637e-07
2.80645e-07
1.71047e-07
8.0649e-08
1.69305e-08
-1.9096e-08
-3.1939e-08
-2.93279e-08
-1.94741e-08
-8.8588e-09
-1.1572e-09
2.64298e-09
3.33262e-09
2.36741e-09
1.02252e-09
1.39894e-11
-4.77993e-10
-5.84296e-10
-5.1434e-10
-4.19812e-10
-3.63005e-10
-3.45352e-10
-3.47295e-10
-3.52837e-10
-3.55777e-10
-3.56203e-10
-3.5578e-10
-3.55477e-10
-3.55425e-10
-3.55465e-10
-3.55492e-10
-3.55494e-10
-3.55489e-10
-3.55487e-10
-3.55488e-10
-3.55488e-10
-3.55488e-10
-3.55488e-10
-3.55488e-10
-3.55488e-10
-3.55488e-10
-3.55488e-10
-3.55488e-10
-3.55488e-10
-3.55488e-10
-3.55488e-10
-3.55488e-10
-1.08005e-18
1.75029e-17
3.92594e-17
2.14516e-17
-1.07832e-16
-3.41947e-16
-3.89391e-16
3.99095e-16
2.4409e-15
4.32179e-15
1.25895e-15
-1.28058e-14
-3.51944e-14
-3.8866e-14
2.98159e-14
2.05316e-13
3.92297e-13
2.59121e-13
-6.62302e-13
-2.43011e-12
-3.7573e-12
-1.4919e-12
7.89663e-12
2.3544e-11
3.35575e-11
1.28958e-11
-6.41461e-11
-1.90905e-10
-2.86222e-10
-1.81202e-10
3.11222e-10
1.21484e-09
2.15123e-09
2.21467e-09
2.00474e-10
-4.66329e-09
-1.1628e-08
-1.75396e-08
-1.69774e-08
-4.04947e-09
2.43067e-08
6.47676e-08
1.05874e-07
1.29954e-07
1.19113e-07
6.34626e-08
-3.21026e-08
-1.46384e-07
-2.4748e-07
-3.03959e-07
-2.97032e-07
-2.28222e-07
-1.18893e-07
-1.82309e-09
9.12713e-08
1.40683e-07
1.43682e-07
1.12247e-07
6.56905e-08
2.21967e-08
-7.0639e-09
-1.95134e-08
-1.90314e-08
-1.21219e-08
-4.50824e-09
6.15013e-10
2.60283e-09
2.36062e-09
1.19205e-09
5.51473e-11
-6.48926e-10
-9.31385e-10
-9.68979e-10
-9.25227e-10
-8.85439e-10
-8.69637e-10
-8.6902e-10
-8.72205e-10
-8.74079e-10
-8.74354e-10
-8.74091e-10
-8.73916e-10
-8.73897e-10
-8.73925e-10
-8.73938e-10
-8.73937e-10
-8.73935e-10
-8.73934e-10
-8.73934e-10
-8.73935e-10
-8.73934e-10
-8.73934e-10
-8.73934e-10
-8.73934e-10
-8.73934e-10
-8.73934e-10
-8.73934e-10
-8.73934e-10
-8.73934e-10
-8.73934e-10
9.51878e-18
3.25875e-17
1.85079e-17
-8.82441e-17
-2.85001e-16
-3.25159e-16
3.50711e-16
2.10429e-15
3.68208e-15
8.37212e-16
-1.17558e-14
-3.13025e-14
-3.25356e-14
3.37595e-14
1.96159e-13
3.56095e-13
1.88922e-13
-7.43805e-13
-2.43011e-12
-3.46507e-12
-5.97848e-13
9.52253e-12
2.50646e-11
3.19472e-11
2.44668e-12
-8.87468e-11
-2.24436e-10
-2.95985e-10
-9.48354e-11
5.85007e-10
1.69603e-09
2.61725e-09
2.01781e-09
-1.72925e-09
-9.334e-09
-1.87935e-08
-2.39448e-08
-1.48774e-08
1.84218e-08
7.90611e-08
1.54925e-07
2.13218e-07
2.02664e-07
6.61447e-08
-2.37967e-07
-7.12806e-07
-1.30852e-06
-1.92518e-06
-2.43567e-06
-2.72265e-06
-2.71619e-06
-2.41734e-06
-1.89795e-06
-1.27665e-06
-6.80925e-07
-2.10137e-07
8.72109e-08
2.15994e-07
2.19492e-07
1.55965e-07
7.71209e-08
1.55159e-08
-1.73936e-08
-2.54749e-08
-1.93393e-08
-9.21669e-09
-1.33213e-09
2.40168e-09
2.82542e-09
1.66737e-09
3.1341e-10
-5.9122e-10
-9.85172e-10
-1.06218e-09
-1.02305e-09
-9.78761e-10
-9.59484e-10
-9.57714e-10
-9.60858e-10
-9.62878e-10
-9.6322e-10
-9.62967e-10
-9.62791e-10
-9.62771e-10
-9.62798e-10
-9.62811e-10
-9.6281e-10
-9.62807e-10
-9.62806e-10
-9.62807e-10
-9.62807e-10
-9.62807e-10
-9.62807e-10
-9.62807e-10
-9.62807e-10
-9.62807e-10
-9.62807e-10
-9.62807e-10
-9.62807e-10
-9.62807e-10
2.63567e-17
2.23349e-17
-8.12222e-17
-2.81148e-16
-3.40851e-16
3.12176e-16
2.09237e-15
3.79317e-15
1.05778e-15
-1.18259e-14
-3.23938e-14
-3.45161e-14
3.42127e-14
2.06059e-13
3.78367e-13
2.02694e-13
-8.00433e-13
-2.62955e-12
-3.75729e-12
-5.97847e-13
1.05983e-11
2.78551e-11
3.54297e-11
1.95441e-12
-1.01718e-10
-2.56788e-10
-3.39153e-10
-1.06306e-10
6.8847e-10
2.00465e-09
3.12692e-09
2.46761e-09
-2.00029e-09
-1.13351e-08
-2.34018e-08
-3.08372e-08
-2.10058e-08
2.01591e-08
9.97027e-08
2.06285e-07
3.00434e-07
3.12604e-07
1.54158e-07
-2.57889e-07
-9.67916e-07
-1.95178e-06
-3.10312e-06
-4.24531e-06
-5.16966e-06
-5.68991e-06
-5.69535e-06
-5.18394e-06
-4.26316e-06
-3.11827e-06
-1.95945e-06
-9.66444e-07
-2.48922e-07
1.66837e-07
3.24864e-07
3.09335e-07
2.10784e-07
1.00436e-07
1.86566e-08
-2.31782e-08
-3.26264e-08
-2.43939e-08
-1.15759e-08
-1.72172e-09
3.04708e-09
3.87091e-09
2.83573e-09
1.54423e-09
7.09584e-10
3.83638e-10
3.51702e-10
4.08637e-10
4.53355e-10
4.67781e-10
4.66133e-10
4.62118e-10
4.60453e-10
4.6051e-10
4.60875e-10
4.6101e-10
4.60988e-10
4.60955e-10
4.60949e-10
4.60953e-10
4.60955e-10
4.60955e-10
4.60955e-10
4.60955e-10
4.60955e-10
4.60955e-10
4.60955e-10
4.60955e-10
4.60955e-10
4.60955e-10
4.60955e-10
4.60955e-10
3.40218e-17
-4.97308e-17
-2.58137e-16
-4.059e-16
7.72109e-17
1.80387e-15
4.00185e-15
2.5661e-15
-9.16253e-15
-3.16222e-14
-4.18285e-14
1.52302e-14
1.87362e-13
3.9707e-13
3.02551e-13
-6.35519e-13
-2.56013e-12
-4.07814e-12
-1.49189e-12
9.52253e-12
2.78551e-11
3.80816e-11
7.47466e-12
-9.62661e-11
-2.57024e-10
-3.49031e-10
-1.22745e-10
6.73495e-10
1.98771e-09
3.0733e-09
2.32789e-09
-2.18776e-09
-1.12644e-08
-2.23948e-08
-2.81222e-08
-1.66698e-08
2.3656e-08
9.63537e-08
1.87402e-07
2.59262e-07
2.52899e-07
9.99709e-08
-2.57154e-07
-8.44131e-07
-1.64022e-06
-2.57645e-06
-3.54708e-06
-4.42983e-06
-5.10819e-06
-5.49042e-06
-5.5227e-06
-5.19697e-06
-4.55371e-06
-3.67844e-06
-2.69002e-06
-1.71991e-06
-8.85757e-07
-2.66813e-07
1.10415e-07
2.70995e-07
2.75786e-07
1.97844e-07
1.00303e-07
2.30547e-08
-1.93093e-08
-3.0853e-08
-2.41741e-08
-1.1758e-08
-1.41776e-09
4.23095e-09
5.94978e-09
5.63412e-09
4.83312e-09
4.27993e-09
4.07967e-09
4.07978e-09
4.12837e-09
4.15797e-09
4.16379e-09
4.16033e-09
4.15735e-09
4.1567e-09
4.15704e-09
4.1573e-09
4.15733e-09
4.15729e-09
4.15727e-09
4.15728e-09
4.15728e-09
4.15728e-09
4.15728e-09
4.15728e-09
4.15728e-09
4.15728e-09
4.15728e-09
4.15728e-09
4.15728e-09
4.15728e-09
4.15728e-09
4.15728e-09
1.74407e-18
-1.91108e-16
-3.81168e-16
-1.24385e-16
1.24365e-15
3.4524e-15
3.33093e-15
-5.43723e-15
-2.56877e-14
-4.08637e-14
-2.37883e-15
1.43652e-13
3.52564e-13
3.35736e-13
-4.25436e-13
-2.17564e-12
-3.79004e-12
-1.87508e-12
7.89663e-12
2.50646e-11
3.54297e-11
7.47466e-12
-9.02975e-11
-2.40552e-10
-3.14968e-10
-6.50478e-11
7.37199e-10
1.96382e-09
2.73654e-09
1.36511e-09
-3.86472e-09
-1.28327e-08
-2.12987e-08
-1.99667e-08
2.77077e-09
5.3145e-08
1.21222e-07
1.72899e-07
1.52901e-07
4.59275e-09
-2.9573e-07
-7.03567e-07
-1.09102e-06
-1.27002e-06
-1.05683e-06
-3.57627e-07
7.62709e-07
2.06781e-06
3.21092e-06
3.85314e-06
3.79139e-06
3.03901e-06
1.82174e-06
4.90514e-07
-6.09225e-07
-1.25389e-06
-1.39751e-06
-1.15238e-06
-7.15115e-07
-2.78748e-07
3.09612e-08
1.75872e-07
1.86908e-07
1.26273e-07
5.21421e-08
-8.349e-10
-2.35299e-08
-2.3323e-08
-1.27154e-08
-1.50692e-09
5.81682e-09
8.98326e-09
9.58163e-09
9.2325e-09
8.84413e-09
8.67103e-09
8.65267e-09
8.68049e-09
8.69963e-09
8.70347e-09
8.70131e-09
8.69956e-09
8.69926e-09
8.6995e-09
8.69964e-09
8.69964e-09
8.69961e-09
8.69961e-09
8.69961e-09
8.69961e-09
8.69961e-09
8.69961e-09
8.69961e-09
8.69961e-09
8.69961e-09
8.69961e-09
8.69961e-09
8.69961e-09
8.69961e-09
8.69961e-09
-9.7705e-17
-3.11827e-16
-1.45791e-16
9.16185e-16
2.76802e-15
2.92131e-15
-3.95885e-15
-2.08076e-14
-3.45067e-14
-3.79325e-15
1.19668e-13
3.00979e-13
2.88988e-13
-3.80551e-13
-1.93437e-12
-3.34543e-12
-1.46902e-12
7.70919e-12
2.3544e-11
3.19472e-11
1.95442e-12
-9.62661e-11
-2.40552e-10
-2.92038e-10
1.09405e-11
8.91163e-10
2.15005e-09
2.72227e-09
6.40976e-10
-5.93641e-09
-1.63385e-08
-2.4445e-08
-1.76248e-08
1.90645e-08
9.12713e-08
1.78645e-07
2.21978e-07
1.28241e-07
-1.94101e-07
-7.69087e-07
-1.47637e-06
-2.00252e-06
-1.86455e-06
-5.30183e-07
2.38265e-06
6.89308e-06
1.25254e-05
1.83392e-05
2.31445e-05
2.58453e-05
2.57891e-05
2.29847e-05
1.81013e-05
1.22457e-05
6.61179e-06
2.13537e-06
-7.19147e-07
-1.98584e-06
-2.06128e-06
-1.48806e-06
-7.53349e-07
-1.68838e-07
1.50722e-07
2.36025e-07
1.83979e-07
9.057e-08
1.56774e-08
-2.10751e-08
-2.64648e-08