/*--------------------------------*- C++ -*----------------------------------*\
  =========                 |
  \\      /  F ield         | OpenFOAM: The Open Source CFD Toolbox
   \\    /   O peration     | Website:  https://openfoam.org
    \\  /    A nd           | Version:  13
     \\/     M anipulation  |
\*---------------------------------------------------------------------------*/
FoamFile
{
    format      ascii;
    class       volScalarField;
    location    "7.9";
    object      T;
}
// * * * * * * * * * * * * * * * * * * * * * * * * * * * * * * * * * * * * * //

dimensions      [0 0 0 1 0 0 0];

internalField   nonuniform List<scalar> 
10000
(
2.65143e-35
-2.0789e-34
-5.50901e-34
6.47146e-35
3.4624e-33
7.24666e-33
-4.25746e-33
-5.1218e-32
-8.95179e-32
8.73254e-32
6.87988e-31
1.06512e-30
-1.28516e-30
-8.4867e-30
-1.24821e-29
1.49756e-29
9.64111e-29
1.45301e-28
-1.35767e-28
-1.0017e-27
-1.65888e-27
7.96616e-28
9.32959e-27
1.8006e-26
1.01684e-27
-7.47206e-26
-1.78222e-25
-1.07816e-25
4.68997e-25
1.52882e-24
1.77134e-24
-1.65762e-24
-1.055e-23
-1.89428e-23
-7.14451e-24
4.9594e-23
1.43078e-22
1.75558e-22
-5.00237e-23
-6.85611e-22
-1.4945e-21
-1.50083e-21
8.52505e-22
6.45209e-21
1.32084e-20
1.41395e-20
-1.32877e-21
-4.03026e-20
-9.4411e-20
-1.2949e-19
-8.81963e-20
8.52468e-20
4.00639e-19
7.77637e-19
1.03378e-18
9.30705e-19
2.76659e-19
-9.54652e-19
-2.55322e-18
-4.10379e-18
-5.1253e-18
-5.26427e-18
-4.45006e-18
-2.93213e-18
-1.17774e-18
3.19336e-19
1.22523e-18
1.46286e-18
1.18791e-18
6.75366e-19
1.85378e-19
-1.27873e-19
-2.36163e-19
-1.9914e-19
-1.04318e-19
-1.95756e-20
2.56208e-20
3.38328e-20
2.21383e-20
6.80337e-21
-3.67986e-21
-8.09208e-21
-8.73475e-21
-8.12448e-21
-7.59719e-21
-7.42671e-21
-7.44675e-21
-7.49011e-21
-7.50466e-21
-7.5021e-21
-7.49861e-21
-7.49805e-21
-7.49849e-21
-7.49867e-21
-7.49864e-21
-7.4986e-21
-7.49861e-21
-7.49861e-21
-7.49861e-21
-7.49861e-21
-2.07891e-34
-1.8165e-34
1.15586e-33
3.65366e-33
1.22974e-33
-1.88963e-32
-4.97111e-32
-3.35651e-33
2.74626e-31
6.42325e-31
-5.12276e-32
-3.60607e-30
-7.98909e-30
6.43037e-31
4.29551e-29
9.60796e-29
6.7713e-30
-4.60317e-28
-1.10828e-27
-3.87643e-28
4.32387e-27
1.20029e-26
8.64255e-27
-3.34555e-26
-1.17963e-25
-1.36593e-25
1.76641e-25
9.99486e-25
1.68529e-24
2.88912e-26
-6.65095e-24
-1.63511e-23
-1.44704e-23
2.61926e-23
1.18271e-22
1.97432e-22
6.80333e-23
-5.22032e-22
-1.53909e-21
-2.10327e-21
-2.13852e-22
6.26249e-21
1.65435e-20
2.26213e-20
7.45118e-21
-4.81225e-20
-1.45047e-19
-2.36474e-19
-2.07806e-19
1.02464e-19
8.13949e-19
1.85104e-18
2.78063e-18
2.74368e-18
5.86997e-19
-4.76543e-18
-1.37875e-17
-2.58842e-17
-3.92387e-17
-5.11406e-17
-5.87563e-17
-6.00746e-17
-5.46397e-17
-4.37447e-17
-2.99912e-17
-1.64006e-17
-5.45701e-18
1.54039e-18
4.60933e-18
4.74267e-18
3.3231e-18
1.57517e-18
2.49528e-19
-4.15649e-19
-5.38418e-19
-3.76056e-19
-1.56481e-19
-3.54611e-21
5.73105e-20
5.49514e-20
2.88087e-20
4.92168e-21
-8.0111e-21
-1.19769e-20
-1.18215e-20
-1.09227e-20
-1.04677e-20
-1.04159e-20
-1.04772e-20
-1.05107e-20
-1.05117e-20
-1.05063e-20
-1.05047e-20
-1.05052e-20
-1.05056e-20
-1.05055e-20
-1.05055e-20
-1.05055e-20
-1.05055e-20
-1.05055e-20
-5.50903e-34
1.15585e-33
5.92239e-33
5.92552e-33
-2.23777e-32
-8.43615e-32
-5.6768e-32
3.56843e-31
1.11431e-30
5.05639e-31
-4.9605e-30
-1.38533e-29
-4.89265e-30
6.11956e-29
1.636e-28
6.23944e-29
-6.70376e-28
-1.83525e-27
-9.83128e-28
6.40696e-27
1.93232e-26
1.54325e-26
-5.08209e-26
-1.86116e-25
-2.14412e-25
2.88459e-25
1.57091e-24
2.51968e-24
-3.52947e-25
-1.07604e-23
-2.42285e-23
-1.70566e-23
4.91258e-23
1.8007e-22
2.58848e-22
-2.81744e-24
-8.91803e-22
-2.16166e-21
-2.36022e-21
1.1384e-21
1.0191e-20
2.16651e-20
2.31734e-20
-5.69055e-21
-8.02604e-20
-1.85021e-19
-2.46889e-19
-1.3282e-19
3.00606e-19
1.09741e-18
2.06365e-18
2.67103e-18
2.0838e-18
-6.50157e-19
-6.28135e-18
-1.5028e-17
-2.63718e-17
-3.90715e-17
-5.13948e-17
-6.14801e-17
-6.7715e-17
-6.90432e-17
-6.51631e-17
-5.66052e-17
-4.46728e-17
-3.12212e-17
-1.82813e-17
-7.60107e-18
-2.43869e-19
3.60612e-18
4.55641e-18
3.68133e-18
2.1063e-18
6.71832e-19
-2.13488e-19
-5.24905e-19
-4.56587e-19
-2.44941e-19
-5.52051e-20
4.88061e-20
7.66997e-20
6.57541e-20
4.7518e-20
3.62354e-20
3.27926e-20
3.31732e-20
3.41155e-20
3.45122e-20
3.45068e-20
3.44297e-20
3.44035e-20
3.44089e-20
3.44148e-20
3.44152e-20
3.44144e-20
3.44142e-20
3.44143e-20
3.44144e-20
3.44143e-20
3.44143e-20
6.47151e-35
3.65365e-33
5.92549e-33
-9.36489e-33
-5.66495e-32
-6.95497e-32
1.79327e-31
8.0311e-31
7.666e-31
-2.81033e-30
-1.05571e-29
-8.37602e-30
3.79275e-29
1.30065e-28
9.68919e-29
-4.47289e-28
-1.50763e-27
-1.22046e-27
4.57117e-27
1.63548e-26
1.6045e-26
-3.89211e-26
-1.6329e-25
-2.04292e-25
2.4428e-25
1.45424e-24
2.36359e-24
-5.25694e-25
-1.09224e-23
-2.3651e-23
-1.28411e-23
6.1104e-23
1.94089e-22
2.35408e-22
-1.45321e-22
-1.19022e-21
-2.35214e-21
-1.58564e-21
4.06868e-21
1.50663e-20
2.34956e-20
9.80215e-21
-4.83019e-20
-1.47466e-19
-2.19463e-19
-1.16425e-19
3.26315e-19
1.11949e-18
1.89358e-18
1.7843e-18
-3.41141e-19
-5.18331e-18
-1.19899e-17
-1.77355e-17
-1.72138e-17
-4.52117e-18
2.42757e-17
6.83442e-17
1.20681e-16
1.69272e-16
2.00834e-16
2.05749e-16
1.81976e-16
1.36025e-16
8.04777e-17
2.92008e-17
-7.50222e-18
-2.57321e-17
-2.79052e-17
-2.03054e-17
-9.80742e-18
-1.3352e-18
3.10711e-18
3.93457e-18
2.73628e-18
1.09325e-18
-6.34623e-20
-5.12285e-19
-4.61358e-19
-2.20965e-19
-4.64816e-21
1.13776e-19
1.51143e-19
1.5024e-19
1.41836e-19
1.37312e-19
1.36649e-19
1.37203e-19
1.37556e-19
1.37588e-19
1.37537e-19
1.37517e-19
1.3752e-19
1.37524e-19
1.37525e-19
1.37524e-19
1.37524e-19
1.37524e-19
1.37524e-19
1.37524e-19
3.46241e-33
1.22974e-33
-2.23778e-32
-5.66497e-32
7.82554e-33
3.52018e-31
7.43026e-31
-3.50066e-31
-4.98937e-30
-9.32723e-30
6.23399e-30
6.45976e-29
1.14177e-28
-7.74038e-29
-7.67203e-28
-1.37374e-27
6.64248e-28
8.30612e-27
1.61047e-26
-2.02091e-27
-8.0307e-26
-1.7944e-25
-5.86291e-26
6.62485e-25
1.8312e-24
1.50583e-24
-4.16794e-24
-1.62893e-23
-2.21757e-23
1.19596e-23
1.1677e-22
2.38068e-22
1.36643e-22
-5.56605e-22
-1.87403e-21
-2.62498e-21
1.23571e-22
9.43096e-21
2.31586e-20
2.65876e-20
-8.93142e-21
-1.07956e-19
-2.45683e-19
-2.92557e-19
-5.82278e-21
8.48848e-19
2.19847e-18
3.27101e-18
2.39197e-18
-2.61199e-18
-1.30841e-17
-2.74139e-17
-3.8945e-17
-3.53092e-17
-5.32564e-19
7.97102e-17
2.10989e-16
3.84037e-16
5.7304e-16
7.40373e-16
8.47113e-16
8.65764e-16
7.90054e-16
6.37543e-16
4.43776e-16
2.50418e-16
9.23002e-17
-1.15665e-17
-6.01875e-17
-6.63392e-17
-4.8817e-17
-2.48911e-17
-5.69208e-18
4.6868e-18
7.31848e-18
5.54607e-18
2.58323e-18
3.29145e-19
-6.90271e-19
-7.79658e-19
-4.68049e-19
-1.4097e-19
5.04904e-20
1.15858e-19
1.17838e-19
1.05564e-19
9.84735e-20
9.73282e-20
9.81416e-20
9.86728e-20
9.87165e-20
9.86391e-20
9.86115e-20
9.86177e-20
9.8623e-20
9.86229e-20
9.86221e-20
9.86221e-20
9.86222e-20
9.86222e-20
7.24667e-33
-1.88962e-32
-8.43615e-32
-6.955e-32
3.52017e-31
1.18738e-30
5.8016e-31
-5.51494e-30
-1.5539e-29
-4.00605e-30
7.60636e-29
1.92109e-28
2.85745e-29
-9.38052e-28
-2.2673e-27
-4.01312e-28
1.03538e-26
2.55683e-26
8.71561e-27
-1.00793e-25
-2.72313e-25
-1.6835e-25
8.31204e-25
2.6706e-24
2.62278e-24
-5.21522e-24
-2.3149e-23
-3.30593e-23
1.49922e-23
1.65605e-22
3.34888e-22
1.69916e-22
-8.36836e-22
-2.62104e-21
-3.31515e-21
1.1507e-21
1.40921e-20
3.03162e-20
2.76958e-20
-2.92306e-20
-1.57895e-19
-2.98332e-19
-2.64498e-19
2.12993e-19
1.27576e-18
2.57971e-18
2.99611e-18
7.3711e-19
-5.77283e-18
-1.6324e-17
-2.7277e-17
-3.09195e-17
-1.67654e-17
2.51312e-17
1.00005e-16
2.05317e-16
3.30475e-16
4.59602e-16
5.75939e-16
6.6565e-16
7.19452e-16
7.32183e-16
7.01819e-16
6.29573e-16
5.21336e-16
3.89104e-16
2.5043e-16
1.24947e-16
2.89815e-17
-2.92765e-17
-5.16062e-17
-4.77765e-17
-3.0916e-17
-1.25891e-17
3.02783e-19
5.96994e-18
6.13434e-18
3.7355e-18
1.16416e-18
-4.43059e-19
-1.0156e-18
-9.80539e-19
-7.73016e-19
-6.22239e-19
-5.6866e-19
-5.69506e-19
-5.81412e-19
-5.872e-19
-5.87457e-19
-5.86463e-19
-5.86066e-19
-5.8612e-19
-5.86202e-19
-5.86211e-19
-5.862e-19
-5.86197e-19
-5.86198e-19
-5.86198e-19
-5.86198e-19
-5.86198e-19
-4.25747e-33
-4.97109e-32
-5.67677e-32
1.79327e-31
7.43024e-31
5.80157e-31
-3.0903e-30
-1.02841e-29
-5.34513e-30
4.60386e-29
1.33409e-28
4.91264e-29
-6.08114e-28
-1.64066e-27
-5.54625e-28
7.17289e-27
1.92087e-26
8.32155e-27
-7.49632e-26
-2.1287e-25
-1.36793e-25
6.74592e-25
2.1939e-24
2.07586e-24
-4.85216e-24
-2.03878e-23
-2.71935e-23
2.13794e-23
1.62419e-22
2.98463e-22
6.52301e-23
-1.00559e-21
-2.6516e-21
-2.58999e-21
3.50628e-21
1.77619e-20
3.05518e-20
1.26848e-20
-7.24809e-20
-2.18465e-19
-2.98537e-19
-3.83856e-20
8.30722e-19
2.15863e-18
2.86147e-18
8.3048e-19
-6.01087e-18
-1.71806e-17
-2.65482e-17
-2.11793e-17
1.46737e-17
8.88259e-17
1.86318e-16
2.58308e-16
2.24949e-16
-1.2957e-18
-4.75613e-16
-1.17999e-15
-2.00374e-15
-2.76226e-15
-3.25354e-15
-3.33185e-15
-2.96587e-15
-2.25336e-15
-1.38453e-15
-5.71081e-16
2.66056e-17
3.43197e-16
4.09042e-16
3.15286e-16
1.65498e-16
3.69009e-17
-3.58111e-17
-5.47553e-17
-4.13232e-17
-1.86192e-17
-1.2549e-18
6.37702e-18
6.5427e-18
3.50105e-18
4.44054e-19
-1.35865e-18
-2.00078e-18
-2.04351e-18
-1.93656e-18
-1.86787e-18
-1.8534e-18
-1.8596e-18
-1.86484e-18
-1.8657e-18
-1.86508e-18
-1.86475e-18
-1.86477e-18
-1.86483e-18
-1.86483e-18
-1.86483e-18
-1.86483e-18
-1.86483e-18
-1.86483e-18
-1.86483e-18
-5.12181e-32
-3.35632e-33
3.56843e-31
8.0311e-31
-3.50067e-31
-5.51494e-30
-1.02841e-29
8.54401e-30
7.7224e-29
1.26524e-28
-1.3689e-28
-9.92755e-28
-1.53076e-27
1.69957e-27
1.17718e-26
1.84164e-26
-1.62996e-26
-1.28091e-25
-2.18331e-25
1.00708e-25
1.25594e-24
2.47992e-24
1.51987e-25
-1.06685e-23
-2.59315e-23
-1.57932e-23
7.18436e-23
2.37572e-22
2.77994e-22
-2.81116e-22
-1.77455e-21
-3.22678e-21
-1.13933e-21
9.22956e-21
2.68557e-20
3.31571e-20
-1.24125e-20
-1.45383e-19
-3.20861e-19
-3.21086e-19
2.37184e-19
1.62345e-18
3.37213e-18
3.60414e-18
-9.13214e-19
-1.29186e-17
-3.0583e-17
-4.25892e-17
-2.62288e-17
4.6163e-17
1.88881e-16
3.75194e-16
5.11688e-16
4.325e-16
-7.03521e-17
-1.1774e-15
-2.95088e-15
-5.25953e-15
-7.76056e-15
-9.96323e-15
-1.13644e-14
-1.161e-14
-1.06192e-14
-8.61725e-15
-6.06189e-15
-3.4935e-15
-1.36961e-15
5.22509e-17
7.46677e-16
8.7013e-16
6.63627e-16
3.55052e-16
9.66735e-17
-5.02107e-17
-9.38806e-17
-7.56214e-17
-3.78396e-17
-7.11728e-18
7.94197e-18
1.0341e-17
6.79405e-18
2.57269e-18
-4.57029e-20
-1.00278e-18
-1.07044e-18
-9.12361e-19
-8.12014e-19
-7.92753e-19
-8.02986e-19
-8.10587e-19
-8.11459e-19
-8.10424e-19
-8.10006e-19
-8.10078e-19
-8.10154e-19
-8.10155e-19
-8.10145e-19
-8.10144e-19
-8.10145e-19
-8.10145e-19
-8.9518e-32
2.74626e-31
1.11431e-30
7.66601e-31
-4.98937e-30
-1.5539e-29
-5.34515e-30
7.7224e-29
2.01914e-28
2.07741e-29
-1.05911e-27
-2.48598e-27
3.22023e-29
1.30541e-26
2.93357e-26
4.91853e-28
-1.44749e-25
-3.32298e-25
-6.3508e-26
1.42516e-24
3.57133e-24
1.72753e-24
-1.20246e-23
-3.55003e-23
-3.05517e-23
7.95341e-23
3.13534e-22
4.10466e-22
-2.92492e-22
-2.30725e-21
-4.33552e-21
-1.56569e-21
1.2354e-20
3.52181e-20
4.04494e-20
-2.54824e-20
-1.99405e-19
-3.97216e-19
-3.12813e-19
5.05809e-19
2.20808e-18
3.86152e-18
2.91505e-18
-4.01074e-18
-1.81083e-17
-3.37227e-17
-3.51112e-17
4.8793e-19
8.98576e-17
2.22869e-16
3.43552e-16
3.47917e-16
1.09129e-16
-4.73431e-16
-1.42196e-15
-2.65385e-15
-4.00075e-15
-5.26738e-15
-6.29959e-15
-7.02316e-15
-7.4331e-15
-7.54647e-15
-7.35661e-15
-6.82541e-15
-5.92201e-15
-4.68098e-15
-3.2366e-15
-1.8033e-15
-6.07239e-16
1.95107e-16
5.67892e-16
5.92585e-16
4.17898e-16
1.93471e-16
2.01545e-17
-6.57842e-17
-7.80049e-17
-5.16771e-17
-1.87837e-17
3.61799e-18
1.276e-17
1.3375e-17
1.10958e-17
9.18996e-18
8.44074e-18
8.4111e-18
8.55506e-18
8.63284e-18
8.63922e-18
8.62699e-18
8.62154e-18
8.62204e-18
8.6231e-18
8.62325e-18
8.62311e-18
8.62307e-18
8.62308e-18
8.62309e-18
8.62309e-18
8.62309e-18
8.73255e-32
6.42323e-31
5.05635e-31
-2.81033e-30
-9.32721e-30
-4.00602e-30
4.60386e-29
1.26524e-28
2.07738e-29
-6.67027e-28
-1.62215e-27
-2.19126e-29
8.6947e-27
1.99037e-26
-1.99612e-29
-1.02417e-25
-2.34789e-25
-2.97918e-26
1.0818e-24
2.64451e-24
1.00205e-24
-9.99737e-24
-2.78934e-23
-2.01613e-23
7.6222e-23
2.66832e-22
3.03206e-22
-4.0316e-22
-2.20505e-21
-3.6101e-21
1.51235e-22
1.44295e-20
3.40113e-20
2.76506e-20
-5.8407e-20
-2.40863e-19
-3.77513e-19
-8.38963e-20
1.07537e-18
2.90632e-18
3.62658e-18
-3.31214e-19
-1.20909e-17
-2.88362e-17
-3.5428e-17
-4.19401e-18
8.9892e-17
2.35362e-16
3.44908e-16
2.44158e-16
-2.69913e-16
-1.2823e-15
-2.56362e-15
-3.42975e-15
-2.79208e-15
5.20186e-16
7.22088e-15
1.70253e-14
2.84011e-14
3.88304e-14
4.55743e-14
4.66612e-14
4.16649e-14
3.19019e-14
1.99431e-14
8.66505e-15
2.69691e-16
-4.31222e-15
-5.4447e-15
-4.33116e-15
-2.36921e-15
-6.24041e-16
4.02168e-16
7.06929e-16
5.60031e-16
2.68328e-16
3.37864e-17
-7.61632e-17
-8.55356e-17
-4.87786e-17
-8.90633e-18
1.56745e-17
2.49971e-17
2.60169e-17
2.47211e-17
2.37858e-17
2.35544e-17
2.36216e-17
2.36921e-17
2.37067e-17
2.36993e-17
2.36948e-17
2.36948e-17
2.36955e-17
2.36956e-17
2.36956e-17
2.36955e-17
2.36955e-17
2.36955e-17
2.36955e-17
6.87989e-31
-5.12307e-32
-4.96051e-30
-1.05571e-29
6.23402e-30
7.60637e-29
1.3341e-28
-1.3689e-28
-1.05911e-27
-1.62215e-27
2.13385e-27
1.35684e-26
1.94808e-26
-2.6512e-26
-1.60738e-25
-2.34189e-25
2.6222e-25
1.75284e-24
2.7925e-24
-1.83052e-24
-1.7297e-23
-3.20483e-23
2.84695e-24
1.48891e-22
3.39485e-22
1.67044e-22
-1.03238e-21
-3.15825e-21
-3.37689e-21
4.4846e-21
2.40828e-20
4.11441e-20
9.11655e-21
-1.30438e-19
-3.53275e-19
-4.03947e-19
2.40035e-19
1.98544e-18
4.13823e-18
3.786e-18
-3.90889e-18
-2.18851e-17
-4.32185e-17
-4.30582e-17
1.92497e-17
1.75117e-16
3.94761e-16
5.27732e-16
2.85442e-16
-6.69492e-16
-2.488e-15
-4.79222e-15
-6.37124e-15
-5.13377e-15
1.49239e-15
1.56901e-14
3.81428e-14
6.71384e-14
9.83819e-14
1.25799e-13
1.43199e-13
1.46243e-13
1.33941e-13
1.09053e-13
7.71993e-14
4.50412e-14
1.82653e-14
1.33733e-16
-8.94042e-15
-1.08122e-14
-8.43117e-15
-4.63863e-15
-1.37591e-15
5.34841e-16
1.15031e-15
9.62998e-16
5.01908e-16
1.10742e-16
-8.99405e-17
-1.29535e-16
-8.97215e-17
-3.77602e-17
-4.33353e-18
8.36882e-18
9.54365e-18
7.60023e-18
6.29309e-18
6.01959e-18
6.14342e-18
6.24305e-18
6.25631e-18
6.24326e-18
6.23761e-18
6.23844e-18
6.23945e-18
6.23947e-18
6.23934e-18
6.23933e-18
6.23934e-18
6.23934e-18
1.06512e-30
-3.60607e-30
-1.38533e-29
-8.37602e-30
6.45976e-29
1.92109e-28
4.91265e-29
-9.92755e-28
-2.48599e-27
-2.19151e-29
1.35684e-26
3.0541e-26
-3.36144e-27
-1.67126e-25
-3.60509e-25
2.80058e-26
1.857e-24
4.09605e-24
4.30996e-25
-1.83816e-23
-4.42663e-23
-1.81174e-23
1.56741e-22
4.43415e-22
3.53052e-22
-1.06076e-21
-3.95526e-21
-4.94104e-21
4.25445e-21
2.95119e-20
5.34579e-20
1.52224e-20
-1.62124e-19
-4.42729e-19
-4.83726e-19
3.80646e-19
2.56754e-18
4.93593e-18
3.58706e-18
-7.02062e-18
-2.82822e-17
-4.77556e-17
-3.30688e-17
5.69541e-17
2.33408e-16
4.19513e-16
4.14029e-16
-6.28114e-17
-1.19901e-15
-2.82851e-15
-4.20942e-15
-4.02974e-15
-7.63612e-16
6.68843e-15
1.83617e-14
3.29699e-14
4.82592e-14
6.18576e-14
7.21771e-14
7.88414e-14
8.23909e-14
8.34819e-14
8.2145e-14
7.76396e-14
6.90322e-14
5.61213e-14
4.00779e-14
2.33397e-14
8.7761e-15
-1.41545e-15
-6.48167e-15
-7.19091e-15
-5.26816e-15
-2.56288e-15
-3.84085e-16
7.48503e-16
9.56204e-16
6.57559e-16
2.5341e-16
-3.24304e-17
-1.553e-16
-1.69099e-16
-1.43355e-16
-1.20119e-16
-1.10557e-16
-1.09956e-16
-1.11672e-16
-1.12648e-16
-1.12744e-16
-1.12597e-16
-1.12528e-16
-1.12533e-16
-1.12546e-16
-1.12548e-16
-1.12546e-16
-1.12546e-16
-1.12546e-16
-1.12546e-16
-1.12546e-16
-1.12546e-16
-1.28516e-30
-7.98907e-30
-4.89261e-30
3.79275e-29
1.14177e-28
2.85742e-29
-6.08114e-28
-1.53076e-27
3.22056e-29
8.6947e-27
1.94808e-26
-3.36148e-27
-1.1249e-25
-2.38463e-25
4.22558e-26
1.32149e-24
2.82062e-24
-7.96091e-26
-1.39868e-23
-3.19892e-23
-8.02039e-24
1.30263e-22
3.40687e-22
2.11123e-22
-1.01107e-21
-3.29648e-21
-3.46309e-21
5.6258e-21
2.76088e-20
4.29635e-20
-7.00985e-21
-1.84069e-19
-4.15006e-19
-3.09108e-19
7.78953e-19
2.9989e-18
4.52801e-18
6.44729e-19
-1.37704e-17
-3.58304e-17
-4.31688e-17
7.70225e-18
1.53165e-16
3.55096e-16
4.24718e-16
2.44101e-17
-1.14173e-15
-2.91302e-15
-4.19886e-15
-2.85885e-15
3.56274e-15
1.60338e-14
3.16466e-14
4.19397e-14
3.35595e-14
-7.76762e-15
-9.06502e-14
-2.11454e-13
-3.51314e-13
-4.79378e-13
-5.62149e-13
-5.75535e-13
-5.14319e-13
-3.94568e-13
-2.47692e-13
-1.0889e-13
-5.19735e-15
5.18335e-14
6.64795e-14
5.33457e-14
2.95141e-14
8.09353e-15
-4.64771e-15
-8.56398e-15
-6.88844e-15
-3.36232e-15
-4.80371e-16
8.98164e-16
1.04181e-15
6.0695e-16
1.21826e-16
-1.8198e-16
-2.99675e-16
-3.14202e-16
-2.98904e-16
-2.87349e-16
-2.84336e-16
-2.8509e-16
-2.85957e-16
-2.8615e-16
-2.86065e-16
-2.86008e-16
-2.86007e-16
-2.86016e-16
-2.86018e-16
-2.86017e-16
-2.86016e-16
-2.86017e-16
-2.86017e-16
-2.86017e-16
-8.4867e-30
6.43072e-31
6.11957e-29
1.30065e-28
-7.74041e-29
-9.38053e-28
-1.64066e-27
1.69958e-27
1.30541e-26
1.99037e-26
-2.6512e-26
-1.67127e-25
-2.38463e-25
3.29991e-25
1.97868e-24
2.86117e-24
-3.2781e-24
-2.15705e-23
-3.40793e-23
2.31949e-23
2.12909e-22
3.91018e-22
-4.33159e-23
-1.83518e-21
-4.14413e-21
-1.96072e-21
1.2776e-20
3.86022e-20
4.05923e-20
-5.63791e-20
-2.95117e-19
-4.98209e-19
-9.73533e-20
1.60896e-18
4.29789e-18
4.83293e-18
-3.11025e-18
-2.43107e-17
-5.00485e-17
-4.4816e-17
4.95354e-17
2.66908e-16
5.2095e-16
5.09917e-16
-2.53335e-16
-2.13533e-15
-4.7576e-15
-6.29359e-15
-3.28231e-15
8.27356e-15
3.00796e-14
5.74814e-14
7.59e-14
6.03655e-14
-1.96433e-14
-1.89826e-13
-4.57945e-13
-8.03326e-13
-1.17479e-12
-1.50029e-12
-1.70658e-12
-1.74242e-12
-1.59618e-12
-1.30055e-12
-9.22045e-13
-5.39542e-13
-2.20508e-13
-3.84256e-15
1.05249e-13
1.28498e-13
1.00771e-13
5.58304e-14
1.6889e-14
-6.09259e-15
-1.36376e-14
-1.15323e-14
-6.07186e-15
-1.38674e-15
1.04475e-15
1.54673e-15
1.08563e-15
4.67916e-16
6.66515e-17
-8.73639e-17
-1.02447e-16
-7.93455e-17
-6.35668e-17
-6.01955e-17
-6.16615e-17
-6.28663e-17
-6.30322e-17
-6.2876e-17
-6.2807e-17
-6.28167e-17
-6.2829e-17
-6.28293e-17
-6.28277e-17
-6.28276e-17
-6.28277e-17
-6.28277e-17
-1.24821e-29
4.29551e-29
1.636e-28
9.68918e-29
-7.67204e-28
-2.2673e-27
-5.54626e-28
1.17718e-26
2.93357e-26
-1.99406e-29
-1.60738e-25
-3.60509e-25
4.22555e-26
1.97868e-24
4.25832e-24
-3.48309e-25
-2.19756e-23
-4.84215e-23
-5.05058e-24
2.17402e-22
5.23655e-22
2.15285e-22
-1.85177e-21
-5.24708e-21
-4.1987e-21
1.24984e-20
4.67879e-20
5.87282e-20
-4.95872e-20
-3.48579e-19
-6.3461e-19
-1.88396e-19
1.90635e-18
5.24416e-18
5.78929e-18
-4.35772e-18
-3.02677e-17
-5.86883e-17
-4.36095e-17
8.11114e-17
3.338e-16
5.69796e-16
4.06502e-16
-6.50165e-16
-2.74963e-15
-5.00772e-15
-5.05142e-15
4.76122e-16
1.39338e-14
3.35647e-14
5.07653e-14
4.99464e-14
1.25096e-14
-7.57018e-14
-2.167e-13
-3.96794e-13
-5.90008e-13
-7.6745e-13
-9.07735e-13
-1.00254e-12
-1.05429e-12
-1.06802e-12
-1.04371e-12
-9.74718e-13
-8.53854e-13
-6.82993e-13
-4.79244e-13
-2.72895e-13
-9.74919e-14
2.25875e-14
8.03846e-14
8.65477e-14
6.23077e-14
2.96874e-14
3.91339e-15
-9.22382e-15
-1.14218e-14
-7.74233e-15
-2.92388e-15
4.35853e-16
1.85486e-15
1.994e-15
1.67918e-15
1.40251e-15
1.29039e-15
1.28421e-15
1.30479e-15
1.3163e-15
1.31737e-15
1.31561e-15
1.3148e-15
1.31487e-15
1.31502e-15
1.31504e-15
1.31502e-15
1.31502e-15
1.31502e-15
1.31502e-15
1.31502e-15
1.31502e-15
1.49756e-29
9.60796e-29
6.23942e-29
-4.47289e-28
-1.37374e-27
-4.0131e-28
7.1729e-27
1.84163e-26
4.91831e-28
-1.02417e-25
-2.34189e-25
2.80061e-26
1.32149e-24
2.86117e-24
-3.48313e-25
-1.54606e-23
-3.3725e-23
-8.71898e-25
1.62659e-22
3.80481e-22
1.14254e-22
-1.50148e-21
-4.02374e-21
-2.67135e-21
1.1484e-20
3.85864e-20
4.21056e-20
-6.17824e-20
-3.19427e-19
-5.10613e-19
4.6174e-20
2.09312e-18
4.84399e-18
3.82886e-18
-8.51344e-18
-3.4338e-17
-5.32934e-17
-1.11554e-17
1.52796e-16
4.10284e-16
5.10677e-16
-4.48461e-17
-1.69162e-15
-4.03806e-15
-4.9825e-15
-6.84582e-16
1.23434e-14
3.25806e-14
4.80856e-14
3.49266e-14
-3.48903e-14
-1.73466e-13
-3.50291e-13
-4.73119e-13
-3.94694e-13
4.3667e-14
9.39138e-13
2.25411e-12
3.78249e-12
5.18499e-12
6.09238e-12
6.23882e-12
5.56684e-12
4.25395e-12
2.64679e-12
1.13296e-12
8.92704e-15
-6.00539e-13
-7.45401e-13
-5.88766e-13
-3.19666e-13
-8.18816e-14
5.71672e-14
9.77508e-14
7.69352e-14
3.66466e-14
4.41108e-15
-1.06388e-14
-1.18585e-14
-6.74772e-15
-1.22359e-15
2.18254e-15
3.47716e-15
3.62114e-15
3.44268e-15
3.31305e-15
3.28071e-15
3.28989e-15
3.29966e-15
3.30171e-15
3.3007e-15
3.30006e-15
3.30007e-15
3.30017e-15
3.30018e-15
3.30017e-15
3.30017e-15
3.30017e-15
3.30017e-15
3.30017e-15
9.64111e-29
6.77103e-30
-6.70377e-28
-1.50763e-27
6.64251e-28
1.03538e-26
1.92087e-26
-1.62996e-26
-1.4475e-25
-2.34789e-25
2.6222e-25
1.857e-24
2.82062e-24
-3.2781e-24
-2.19756e-23
-3.37251e-23
3.1944e-23
2.38811e-22
3.9815e-22
-2.08644e-22
-2.34232e-21
-4.51403e-21
-1.76982e-23
1.99706e-20
4.72177e-20
2.63222e-20
-1.36156e-19
-4.33774e-19
-4.85829e-19
5.62934e-19
3.26238e-18
5.73648e-18
1.62455e-18
-1.73058e-17
-4.83162e-17
-5.70524e-17
2.83723e-17
2.66355e-16
5.67222e-16
5.37102e-16
-4.89754e-16
-2.93721e-15
-5.8998e-15
-6.02179e-15
2.2577e-15
2.33423e-14
5.34192e-14
7.23004e-14
4.0882e-14
-8.69381e-14
-3.32497e-13
-6.45947e-13
-8.64822e-13
-7.07325e-13
1.73887e-13
2.0741e-12
5.08645e-12
8.98072e-12
1.31781e-11
1.686e-11
1.91929e-11
1.95937e-11
1.79313e-11
1.45799e-11
1.02982e-11
5.98312e-12
2.39808e-12
-2.12355e-14
-1.22308e-12
-1.46013e-12
-1.13074e-12
-6.16909e-13
-1.78303e-13
7.64603e-14
1.56699e-13
1.29661e-13
6.67788e-14
1.40707e-14
-1.26324e-14
-1.76075e-14
-1.20057e-14
-4.90055e-15
-3.75412e-16
1.32697e-15
1.4748e-15
1.20878e-15
1.03258e-15
9.96513e-16
1.01355e-15
1.02697e-15
1.02869e-15
1.02691e-15
1.02616e-15
1.02627e-15
1.02641e-15
1.02641e-15
1.02639e-15
1.02639e-15
1.02639e-15
1.02639e-15
1.45301e-28
-4.60318e-28
-1.83525e-27
-1.22046e-27
8.30613e-27
2.55683e-26
8.32155e-27
-1.28091e-25
-3.32298e-25
-2.9792e-26
1.75284e-24
4.09606e-24
-7.96053e-26
-2.15705e-23
-4.84215e-23
-8.7194e-25
2.38811e-22
5.49493e-22
1.09749e-22
-2.34579e-21
-5.91267e-21
-2.94612e-21
1.97019e-20
5.8768e-20
5.17067e-20
-1.28859e-19
-5.17889e-19
-6.90667e-19
4.50679e-19
3.78805e-18
7.25183e-18
2.92032e-18
-1.99472e-17
-5.84192e-17
-6.93424e-17
3.66171e-17
3.25309e-16
6.66717e-16
5.59152e-16
-7.6507e-16
-3.61731e-15
-6.54622e-15
-5.35062e-15
5.79344e-15
2.94831e-14
5.72081e-14
6.32312e-14
8.3578e-15
-1.39699e-13
-3.71225e-13
-5.9963e-13
-6.50919e-13
-2.97358e-13
6.65557e-13
2.32752e-12
4.60271e-12
7.23585e-12
9.87653e-12
1.2184e-11
1.39074e-11
1.49067e-11
1.51206e-11
1.45253e-11
1.3128e-11
1.10059e-11
8.35658e-12
5.50983e-12
2.86762e-12
7.90198e-13
-5.17637e-13
-1.06151e-12
-1.02773e-12
-6.89278e-13
-2.98052e-13
-1.19478e-14
1.21127e-13
1.32536e-13
8.40851e-14
2.84885e-14
-7.76937e-15
-2.16866e-14
-2.18728e-14
-1.77521e-14
-1.45399e-14
-1.33358e-14
-1.33187e-14
-1.35665e-14
-1.36939e-14
-1.37021e-14
-1.36812e-14
-1.36724e-14
-1.36733e-14
-1.36751e-14
-1.36753e-14
-1.36751e-14
-1.3675e-14
-1.36751e-14
-1.36751e-14
-1.36751e-14
-1.36751e-14
-1.35767e-28
-1.10828e-27
-9.83129e-28
4.57118e-27
1.61047e-26
8.71562e-27
-7.49633e-26
-2.18331e-25
-6.3508e-26
1.0818e-24
2.7925e-24
4.30996e-25
-1.39868e-23
-3.40793e-23
-5.05056e-24
1.62659e-22
3.98149e-22
1.09748e-22
-1.68563e-21
-4.41895e-21
-2.29652e-21
1.51259e-20
4.56721e-20
3.89775e-20
-1.09488e-19
-4.25339e-19
-5.36881e-19
5.04267e-19
3.38903e-18
6.0195e-18
9.7601e-19
-2.09347e-17
-5.37927e-17
-5.1239e-17
7.2775e-17
3.58527e-16
6.12276e-16
2.55443e-16
-1.43392e-15
-4.33199e-15
-5.96913e-15
-9.92397e-16
1.59049e-14
4.20616e-14
5.69265e-14
2.00454e-14
-1.0936e-13
-3.2503e-13
-5.15119e-13
-4.38637e-13
2.03604e-13
1.5732e-12
3.42151e-12
4.88271e-12
4.51976e-12
7.42156e-13
-7.47124e-12
-1.9831e-11
-3.43803e-11
-4.78262e-11
-5.65543e-11
-5.79532e-11
-5.14607e-11
-3.88276e-11
-2.34586e-11
-9.13592e-12
1.28861e-12
6.67547e-12
7.6022e-12
5.72913e-12
2.92495e-12
5.69346e-13
-7.33603e-13
-1.04547e-12
-7.71045e-13
-3.38192e-13
-1.36322e-14
1.25745e-13
1.2534e-13
6.59806e-14
7.47234e-15
-2.67686e-14
-3.88824e-14
-3.96411e-14
-3.75923e-14
-3.62868e-14
-3.60147e-14
-3.6134e-14
-3.62339e-14
-3.625e-14
-3.6238e-14
-3.62318e-14
-3.62323e-14
-3.62333e-14
-3.62334e-14
-3.62333e-14
-3.62333e-14
-3.62333e-14
-3.62333e-14
-3.62333e-14
-1.0017e-27
-3.87642e-28
6.40696e-27
1.63548e-26
-2.02091e-27
-1.00793e-25
-2.1287e-25
1.00708e-25
1.42516e-24
2.64452e-24
-1.83053e-24
-1.83816e-23
-3.19892e-23
2.31949e-23
2.17402e-22
3.80482e-22
-2.08643e-22
-2.34579e-21
-4.41895e-21
8.75204e-22
2.26605e-20
4.89277e-20
1.24355e-20
-1.87873e-19
-4.97855e-19
-3.74105e-19
1.20841e-18
4.43354e-18
5.70489e-18
-4.00103e-18
-3.20489e-17
-6.22173e-17
-3.00052e-17
1.57892e-16
4.96245e-16
6.55537e-16
-1.23563e-16
-2.56323e-15
-5.9587e-15
-6.39227e-15
3.31572e-15
2.86684e-14
6.20538e-14
6.97751e-14
-7.9274e-15
-2.24244e-13
-5.51621e-13
-7.90214e-13
-5.2902e-13
7.42478e-13
3.30547e-12
6.71004e-12
9.30497e-12
8.12454e-12
-5.71781e-13
-2.00475e-11
-5.14495e-11
-9.24494e-11
-1.36918e-10
-1.76069e-10
-2.00903e-10
-2.05112e-10
-1.87294e-10
-1.51529e-10
-1.06041e-10
-6.04904e-11
-2.30092e-11
1.88055e-12
1.3815e-11
1.56605e-11
1.17554e-11
6.16125e-12
1.55884e-12
-1.00602e-12
-1.72251e-12
-1.35167e-12
-6.56742e-13
-1.0662e-13
1.54747e-13
1.88877e-13
1.19567e-13
4.14547e-14
-5.93358e-15
-2.28397e-14
-2.37939e-14
-2.08629e-14
-1.90653e-14
-1.87398e-14
-1.89315e-14
-1.90673e-14
-1.90813e-14
-1.90624e-14
-1.9055e-14
-1.90564e-14
-1.90578e-14
-1.90578e-14
-1.90576e-14
-1.90576e-14
-1.90576e-14
-1.90576e-14
-1.65888e-27
4.32387e-27
1.93232e-26
1.6045e-26
-8.03071e-26
-2.72313e-25
-1.36793e-25
1.25594e-24
3.57134e-24
1.00205e-24
-1.7297e-23
-4.42664e-23
-8.02043e-24
2.12909e-22
5.23656e-22
1.14254e-22
-2.34232e-21
-5.91267e-21
-2.29652e-21
2.26605e-20
6.29317e-20
4.21445e-20
-1.84471e-19
-6.15096e-19
-6.37943e-19
1.11948e-18
5.29179e-18
7.89032e-18
-2.60208e-18
-3.72726e-17
-7.86522e-17
-4.65284e-17
1.80768e-16
6.03865e-16
8.11261e-16
-1.47009e-16
-3.13153e-15
-7.13335e-15
-7.1712e-15
5.27131e-15
3.54192e-14
7.12591e-14
7.05248e-14
-3.2815e-14
-2.82657e-13
-6.15578e-13
-7.78694e-13
-3.35233e-13
1.15571e-12
3.77039e-12
6.78126e-12
8.38994e-12
5.88767e-12
-3.65565e-12
-2.23448e-11
-5.04634e-11
-8.59782e-11
-1.24783e-10
-1.61577e-10
-1.91022e-10
-2.0876e-10
-2.12097e-10
-2.00363e-10
-1.75031e-10
-1.39621e-10
-9.92607e-11
-5.97891e-11
-2.65004e-11
-2.89487e-12
1.00722e-11
1.39134e-11
1.17435e-11
7.0286e-12
2.48968e-12
-4.47999e-13
-1.58422e-12
-1.46589e-12
-8.29652e-13
-2.19764e-13
1.33929e-13
2.43259e-13
2.20072e-13
1.66049e-13
1.30344e-13
1.18682e-13
1.19457e-13
1.2237e-13
1.23674e-13
1.2369e-13
1.2345e-13
1.23362e-13
1.23378e-13
1.23397e-13
1.23398e-13
1.23396e-13
1.23395e-13
1.23395e-13
1.23395e-13
1.23395e-13
1.23395e-13
7.96618e-28
1.20029e-26
1.54326e-26
-3.89211e-26
-1.7944e-25
-1.6835e-25
6.74592e-25
2.47992e-24
1.72753e-24
-9.99737e-24
-3.20483e-23
-1.81175e-23
1.30263e-22
3.91019e-22
2.15285e-22
-1.50148e-21
-4.51403e-21
-2.94612e-21
1.51259e-20
4.89277e-20
4.21445e-20
-1.27937e-19
-4.88307e-19
-5.68067e-19
8.09134e-19
4.33658e-18
6.77186e-18
-2.01709e-18
-3.23013e-17
-6.84336e-17
-3.60054e-17
1.77073e-16
5.58137e-16
6.81817e-16
-3.83336e-16
-3.33755e-15
-6.71402e-15
-4.88229e-15
1.04977e-14
4.13481e-14
6.71582e-14
3.5128e-14
-1.18097e-13
-3.9274e-13
-6.19977e-13
-4.12612e-13
6.89879e-13
2.79588e-12
5.07209e-12
5.39544e-12
8.19023e-13
-1.07903e-11
-2.82736e-11
-4.50881e-11
-4.93202e-11
-2.70049e-11
3.1673e-11
1.25741e-10
2.39958e-10
3.47304e-10
4.17547e-10
4.28665e-10
3.75945e-10
2.74258e-10
1.52296e-10
4.14734e-11
-3.52674e-11
-6.98837e-11
-6.8811e-11
-4.70856e-11
-2.06527e-11
-5.30546e-13
9.25651e-12
1.02954e-11
6.72515e-12
2.42703e-12
-4.3061e-13
-1.43923e-12
-1.20761e-12
-5.43549e-13
2.24007e-14
3.21802e-13
4.1117e-13
4.05123e-13
3.82513e-13
3.71058e-13
3.69657e-13
3.71198e-13
3.72102e-13
3.72161e-13
3.72022e-13
3.71972e-13
3.71982e-13
3.71992e-13
3.71992e-13
3.71991e-13
3.71991e-13
3.71991e-13
3.71991e-13
3.71991e-13
9.3296e-27
8.64258e-27
-5.08209e-26
-1.6329e-25
-5.86293e-26
8.31204e-25
2.1939e-24
1.51988e-25
-1.20246e-23
-2.78934e-23
2.84694e-24
1.56741e-22
3.40687e-22
-4.33158e-23
-1.85177e-21
-4.02374e-21
-1.77002e-23
1.97019e-20
4.56721e-20
1.24355e-20
-1.84471e-19
-4.88307e-19
-3.11248e-19
1.43818e-18
4.75653e-18
5.09314e-18
-7.97275e-18
-4.01623e-17
-6.36875e-17
7.77787e-18
2.69324e-16
6.22028e-16
4.89802e-16
-1.12199e-15
-4.53662e-15
-7.12014e-15
-1.58991e-15
2.06433e-14
5.66466e-14
7.26682e-14
-2.50919e-15
-2.37911e-13
-5.91367e-13
-7.67139e-13
-1.75423e-13
1.80017e-12
5.09675e-12
8.00769e-12
6.61828e-12
-4.34916e-12
-2.84831e-11
-6.26796e-11
-9.21052e-11
-8.843e-11
-1.4555e-11
1.63211e-10
4.58526e-10
8.507e-10
1.28058e-09
1.66149e-09
1.90376e-09
1.94425e-09
1.76908e-09
1.41945e-09
9.7776e-10
5.39892e-10
1.85212e-10
-4.39643e-11
-1.46959e-10
-1.54435e-10
-1.1019e-10
-5.37381e-11
-9.91854e-12
1.27909e-11
1.76325e-11
1.27268e-11
5.55692e-12
3.66727e-13
-1.82365e-12
-1.86284e-12
-1.03663e-12
-2.36907e-13
2.12639e-13
3.58411e-13
3.58057e-13
3.27956e-13
3.1166e-13
3.09401e-13
3.11431e-13
3.12644e-13
3.12713e-13
3.12527e-13
3.12467e-13
3.12483e-13
3.12495e-13
3.12495e-13
3.12493e-13
3.12493e-13
3.12493e-13
3.12493e-13
1.8006e-26
-3.34555e-26
-1.86117e-25
-2.04292e-25
6.62485e-25
2.67061e-24
2.07586e-24
-1.06685e-23
-3.55003e-23
-2.01613e-23
1.48891e-22
4.43415e-22
2.11124e-22
-1.83518e-21
-5.24708e-21
-2.67136e-21
1.99706e-20
5.8768e-20
3.89775e-20
-1.87873e-19
-6.15096e-19
-5.68067e-19
1.43818e-18
5.85824e-18
7.48432e-18
-7.33185e-18
-4.85134e-17
-8.46259e-17
-5.59618e-18
3.20639e-16
7.87316e-16
6.69076e-16
-1.32246e-15
-5.63298e-15
-8.90959e-15
-1.90893e-15
2.59311e-14
6.98859e-14
8.633e-14
-1.22616e-14
-3.02414e-13
-7.13349e-13
-8.66997e-13
-6.80239e-14
2.32544e-12
6.05669e-12
8.94908e-12
6.50839e-12
-6.81394e-12
-3.41019e-11
-7.08333e-11
-1.00286e-10
-9.25466e-11
-9.52967e-12
1.83941e-10
5.05988e-10
9.45688e-10
1.45843e-09
1.9715e-09
2.39897e-09
2.66195e-09
2.7082e-09
2.5258e-09
2.14678e-09
1.63973e-09
1.09299e-09
5.93035e-10
2.04274e-10