/*--------------------------------*- C++ -*----------------------------------*\
  =========                 |
  \\      /  F ield         | OpenFOAM: The Open Source CFD Toolbox
   \\    /   O peration     | Website:  https://openfoam.org
    \\  /    A nd           | Version:  13
     \\/     M anipulation  |
\*---------------------------------------------------------------------------*/
FoamFile
{
    format      ascii;
    class       volScalarField;
    location    "1.8";
    object      T;
}
// * * * * * * * * * * * * * * * * * * * * * * * * * * * * * * * * * * * * * //

dimensions      [0 0 0 1 0 0 0];

internalField   nonuniform List<scalar> 
10000
(
0
0
0
0
0
0
0
0
0
0
0
0
0
0
0
0
0
0
0
0
0
0
0
0
0
0
0
0
0
0
0
0
0
0
0
0
0
0
0
0
0
0
0
0
0
0
0
0
0
0
0
0
0
0
0
0
0
0
0
0
0
0
0
0
0
0
0
0
0
0
0
0
0
0
0
0
0
0
0
0
0
0
0
0
0
0
0
0
0
0
0
0
0
0
0
0
0
0
0
0
0
0
0
0
0
0
0
0
0
0
0
0
0
0
0
0
0
0
0
0
0
0
0
0
0
0
0
0
0
0
0
0
0
0
0
0
0
0
0
0
0
0
0
0
0
0
0
0
0
0
0
0
0
0
0
0
0
0
0
0
0
0
0
0
0
0
0
0
0
0
0
0
0
0
0
0
0
0
0
0
0
0
0
0
0
0
0
0
0
0
0
0
0
0
0
0
0
0
0
0
0
0
0
0
0
0
0
0
0
0
0
0
0
0
0
0
0
0
0
0
0
0
0
0
0
0
0
0
0
0
0
0
0
0
0
0
0
0
0
0
0
0
0
0
0
0
0
0
0
0
0
0
0
0
0
0
0
0
0
0
0
0
0
0
0
0
0
0
0
0
0
0
0
0
0
0
0
0
0
0
0
0
0
0
0
0
0
0
0
0
0
0
0
0
0
0
0
0
0
0
0
0
0
0
0
0
0
0
0
0
0
0
0
0
0
0
0
0
0
0
0
0
0
0
0
0
0
0
0
0
0
0
0
0
0
0
0
0
0
0
0
0
0
0
0
0
0
0
0
0
0
0
0
0
0
0
0
0
0
0
0
0
0
0
0
0
0
0
0
0
0
0
0
0
0
0
0
0
0
0
0
0
0
0
0
0
0
0
0
0
0
0
0
0
0
0
0
0
0
0
0
0
0
0
0
0
0
0
0
0
0
0
0
0
0
0
0
0
0
0
0
0
0
0
0
0
0
0
0
0
0
0
0
0
0
0
0
0
0
0
0
0
0
0
0
0
0
0
0
0
0
0
0
0
0
0
0
0
0
0
0
0
0
0
0
0
0
0
0
0
0
0
0
0
0
0
0
0
0
0
0
0
0
0
0
0
0
0
0
0
0
0
0
0
0
0
0
0
0
0
0
0
0
0
0
0
0
0
0
0
0
0
0
0
0
0
0
0
0
0
0
0
0
0
0
0
0
0
0
0
0
0
0
0
0
0
0
0
0
0
0
0
0
0
0
0
0
0
0
0
0
0
0
0
0
0
0
0
0
0
0
0
0
0
0
0
0
0
0
0
0
0
0
0
0
0
0
0
0
0
0
0
0
0
0
0
0
0
0
0
0
0
0
0
0
0
0
0
0
0
0
0
0
0
0
0
0
0
0
0
0
0
0
0
0
0
0
0
0
0
0
0
0
0
0
0
0
0
0
0
0
0
0
0
0
0
0
0
0
0
0
0
0
0
0
0
0
0
0
0
0
0
0
0
0
0
0
0
0
0
0
0
0
0
0
0
0
0
0
0
0
0
0
0
0
0
0
0
0
0
0
0
0
0
0
0
0
0
0
0
0
0
0
0
0
0
0
0
0
0
0
0
0
0
0
0
0
0
0
0
0
0
0
0
0
0
0
0
0
0
0
0
0
0
0
0
0
0
0
0
0
0
0
0
0
0
0
0
0
0
0
0
0
0
0
0
0
0
0
0
0
0
0
0
0
0
0
0
0
0
0
0
0
0
0
0
0
0
0
0
0
0
0
0
0
0
0
0
0
0
0
0
0
0
0
0
0
0
0
0
0
0
0
0
0
0
0
0
0
0
0
0
0
0
0
0
0
0
0
0
0
0
0
0
0
0
0
0
0
0
0
0
0
0
0
0
0
0
0
0
0
0
0
0
0
0
0
0
0
0
0
0
0
0
0
0
0
0
0
0
0
0
0
0
0
0
0
0
0
0
0
0
0
0
0
0
0
0
0
0
0
0
0
0
0
0
0
0
0
0
0
0
0
0
0
0
0
0
0
0
0
0
0
0
0
0
0
0
0
0
0
0
0
0
0
0
0
0
0
0
0
0
0
0
0
0
0
0
0
0
0
0
0
0
0
0
0
0
0
0
0
0
0
0
0
0
0
0
0
0
0
0
0
0
0
0
0
0
0
0
0
0
0
0
0
0
0
0
0
0
0
0
0
0
0
0
0
0
0
0
0
0
0
0
0
0
0
0
0
0
0
0
0
0
0
0
0
0
0
0
0
0
0
0
0
0
0
0
0
0
0
0
0
0
0
0
0
0
0
0
0
0
0
0
0
0
0
0
0
0
0
0
0
0
0
0
0
0
0
0
0
0
0
0
0
0
0
0
0
0
0
0
0
0
0
0
0
0
0
0
0
0
0
0
0
0
0
0
0
0
0
0
0
0
0
0
0
0
0
0
0
0
0
0
0
0
0
0
0
0
0
0
0
0
0
0
0
0
0
0
0
0
0
0
0
0
0
0
0
0
0
0
0
0
0
0
0
0
0
0
0
0
0
0
0
0
0
0
0
0
0
0
0
0
0
0
0
0
0
0
0
0
0
0
0
0
0
0
0
0
0
0
0
0
0
0
0
0
0
0
0
0
0
0
0
0
0
0
0
0
0
0
0
0
0
0
0
0
0
0
0
0
0
0
0
0
0
0
0
0
0
0
0
0
0
0
0
0
0
0
0
0
0
0
0
0
0
0
0
0
0
0
0
0
0
0
0
0
0
0
0
0
0
0
0
0
0
0
0
0
0
0
0
0
0
0
0
0
0
0
0
0
0
0
0
0
0
0
0
0
0
0
0
0
0
0
0
0
0
0
0
0
0
0
0
0
0
0
0
0
0
0
0
0
0
0
0
0
0
0
0
0
0
0
0
0
0
0
0
0
0
0
0
0
0
0
0
0
0
0
0
0
0
0
0
0
0
0
0
0
0
0
0
0
0
0
0
0
0
0
0
0
0
0
0
0
0
0
0
0
0
0
0
0
0
0
0
0
0
0
0
0
0
0
0
0
0
0
0
0
0
0
0
0
0
0
0
0
0
0
0
0
0
0
0
0
0
0
0
0
0
0
0
0
0
0
0
0
0
0
0
0
0
0
0
0
0
0
0
0
0
0
0
0
0
0
0
0
0
0
0
0
0
0
0
0
0
0
0
0
0
0
0
0
0
0
0
0
0
0
0
0
0
0
0
0
0
0
0
0
0
0
0
0
0
0
0
0
0
0
0
0
0
0
0
0
0
0
0
0
0
0
0
0
0
0
0
0
0
0
0
0
0
0
0
0
0
0
0
0
0
0
0
0
0
0
0
0
0
0
0
0
0
0
0
0
0
0
0
0
0
0
0
0
0
0
0
0
0
0
0
0
0
0
0
0
0
0
0
0
0
0
0
0
0
0
0
0
0
0
0
0
0
0
0
0
0
0
0
0
0
0
0
0
0
0
0
0
0
0
0
0
0
0
0
0
0
0
0
0
0
0
0
0
0
0
0
0
0
0
0
0
0
0
0
0
0
0
0
0
0
0
0
0
0
0
0
0
0
0
0
0
0
0
0
0
0
0
0
0
0
0
0
0
0
0
0
0
0
0
0
0
0
0
0
0
0
0
0
0
0
0
0
0
0
0
0
0
0
0
0
0
0
0
0
0
0
0
0
0
0
0
0
0
0
0
0
0
0
0
0
0
0
0
0
0
0
0
0
0
0
0
0
0
0
0
0
0
0
0
0
0
0
0
0
0
0
0
0
0
0
0
0
0
0
0
0
0
0
0
0
0
0
0
0
0
0
0
0
0
0
0
0
0
0
0
0
0
0
0
0
0
0
0
0
0
0
0
0
0
0
0
0
0
0
0
0
0
0
0
0
0
0
0
0
0
0
0
0
0
0
0
0
0
0
0
0
0
0
0
0
0
0
0
0
0
0
0
0
0
0
0
0
0
0
0
0
0
0
0
0
0
0
0
0
0
0
0
0
0
0
0
0
0
0
0
0
0
0
0
0
0
0
0
0
0
0
0
0
0
0
0
0
0
0
0
0
0
0
0
0
0
0
0
0
0
0
0
0
0
0
0
0
0
0
0
0
0
0
0
0
0
0
0
0
0
0
0
0
0
0
0
0
0
0
0
0
0
0
0
0
0
0
0
0
0
0
0
0
0
0
0
0
0
0
0
0
0
0
0
0
0
0
0
0
0
0
0
0
0
0
0
0
0
0
0
0
0
0
0
0
0
0
0
0
0
0
0
0
0
0
0
0
0
0
0
0
0
0
0
0
0
0
0
0
0
0
0
0
0
0
0
0
0
0
0
0
0
0
0
0
0
0
0
0
0
0
0
0
0
0
0
0
0
0
0
0
0
0
0
0
0
0
0
0
0
0
0
0
0
0
0
0
0
0
0
0
0
0
0
0
0
0
0
0
0
0
0
0
0
0
0
0
0
0
0
0
0
0
0
0
0
0
0
0
0
0
0
0
0
0
0
0
0
0
0
0
0
0
0
0
0
0
0
0
0
0
0
0
0
0
0
0
0
0
0
0
0
0
0
0
0
0
0
0
0
0
0
0
0
0
0
0
0
0
0
0
0
0
0
0
0
0
0
0
0
0
0
0
0
0
0
0
0
0
0
0
0
0
0
0
0
0
0
0
0
0
0
0
0
0
0
0
0
0
0
0
0
0
0
0
0
0
0
0
0
0
0
0
0
0
0
0
0
0
0
0
0
0
0
0
0
0
0
0
0
0
0
0
0
0
0
0
0
0
0
0
0
0
0
0
0
0
0
0
0
0
0
0
0
0
0
0
0
0
0
0
0
0
0
0
0
0
0
0
0
0
0
0
0
0
0
0
0
0
0
0
0
0
0
0
0
0
0
0
0
0
0
0
0
0
0
0
0
0
0
0
0
0
0
0
0
0
0
0
0
0
0
0
0
0
0
0
0
0
0
0
0
0
0
0
0
0
0
0
0
0
0
0
0
0
0
0
0
0
0
0
0
0
0
0
0
0
0
0
0
0
0
0
0
0
0
0
0
0
0
0
0
0
0
0
0
0
0
0
0
0
0
0
0
0
0
0
0
0
0
0
0
0
0
0
0
0
0
0
0
0
0
0
0
0
0
0
0
0
0
0
0
0
0
0
0
0
0
0
0
0
0
0
0
0
0
0
0
0
0
0
0
0
0
0
0
0
0
0
0
0
0
0
0
0
0
0
0
0
0
0
0
0
0
0
0
0
0
0
0
0
0
0
0
0
0
0
0
0
0
0
0
0
0
0
0
0
0
0
0
0
0
0
0
0
0
0
0
0
0
0
0
0
0
0
0
0
0
0
0
0
0
0
0
0
0
0
0
0
0
0
0
0
0
0
0
0
0
0
0
0
0
0
0
0
0
0
0
0
0
0
0
0
0
0
0
0
0
0
0
0
0
0
0
0
0
0
0
0
0
0
0
0
0
0
0
0
0
0
0
0
0
0
0
0
0
0
0
0
0
0
0
0
0
0
0
0
0
0
0
1.18576e-322
-1.28309e-320
1.18042e-319
-3.23944e-319
9.92331e-320
7.51573e-320
4.80716e-319
1.02466e-318
-2.89787e-317
1.96881e-316
-7.26266e-316
4.62253e-315
-8.41677e-316
-2.4447e-315
1.87179e-315
-1.04422e-314
-2.6984e-314
6.73184e-314
9.89728e-314
1.69121e-314
-5.88358e-314
-9.66733e-314
-5.47034e-314
9.57277e-314
4.79627e-314
-9.70563e-314
-3.14749e-314
1.92866e-314
2.82195e-314
-3.59925e-314
2.70302e-313
-2.45878e-314
-1.30418e-313
-7.2067e-314
-7.51011e-314
-1.25418e-314
3.47344e-314
3.72137e-314
-2.67937e-314
1.8013e-314
2.12045e-314
-5.99949e-315
6.47903e-315
-5.29054e-315
1.56247e-315
-3.17215e-315
8.68025e-316
1.05188e-315
-2.31002e-317
-1.67301e-316
-3.1442e-316
1.38323e-316
-6.5936e-317
6.45041e-317
2.82179e-317
-1.22175e-318
1.0193e-317
-8.93087e-318
-5.57695e-318
-1.40019e-318
6.83639e-320
6.2486e-319
-1.42449e-319
-1.25325e-319
0
0
0
0
0
0
0
0
0
0
0
0
0
0
0
0
0
0
-1.3819e-320
6.40704e-320
-1.20707e-318
1.74406e-317
-2.01049e-316
1.615e-315
-1.55286e-314
1.35712e-313
-8.28033e-313
5.58906e-312
-4.59084e-311
3.08551e-310
-1.91885e-309
7.27079e-309
-5.14179e-308
2.01091e-307
-4.0804e-307
-1.34967e-306
9.48534e-306
-8.80897e-305
7.0144e-305
-2.02998e-304
-5.98137e-306
1.01497e-304
4.47873e-305
1.31364e-303
-1.50876e-302
1.00379e-301
-5.09566e-301
2.76228e-300
-1.05273e-299
3.54245e-300
1.63356e-298
-1.86387e-298
-7.86783e-299
2.01032e-299
4.94059e-299
5.39295e-299
4.29297e-299
-2.4199e-299
-5.57978e-299
1.88729e-299
9.69777e-299
-1.24734e-298
3.53963e-298
-6.45305e-301
-2.92534e-298
-3.6461e-298
8.45743e-299
8.72358e-299
1.43615e-298
1.0969e-298
1.3582e-299
-7.77115e-299
-8.17172e-299
1.65365e-299
3.43333e-299
1.59863e-299
-2.53838e-300
-7.47499e-300
-7.49926e-300
-1.89983e-300
2.59269e-300
3.6291e-300
7.46936e-301
-3.95927e-301
-4.4156e-301
-3.7198e-301
1.69162e-303
1.61605e-301
1.15111e-301
-1.76798e-302
-5.0197e-302
-1.05409e-302
1.35475e-302
7.92414e-303
1.67124e-303
-2.54412e-304
-5.97869e-304
4.18091e-304
-2.57375e-304
-1.63112e-304
4.27811e-320
-4.13894e-319
3.26077e-318
-2.05547e-317
2.73641e-316
-1.4874e-315
1.87322e-314
-2.50384e-313
8.62386e-313
-3.90071e-311
3.2124e-310
-3.85782e-309
2.36317e-308
-1.38235e-307
2.70856e-308
5.06613e-307
-1.49527e-307
3.1611e-306
-2.78108e-305
1.87496e-304
-7.52213e-304
8.6909e-303
-6.57681e-302
4.13605e-301
-1.31476e-300
-1.56147e-299
1.26392e-298
-9.92572e-298
7.30327e-297
-5.91541e-296
4.2161e-295
-3.24521e-294
1.88852e-293
-9.26584e-293
2.89546e-292
1.06942e-291
-1.22547e-290
7.95816e-290
-3.18272e-289
8.10338e-290
6.59058e-290
2.77502e-289
-1.0148e-288
-4.662e-289
3.22519e-288
-2.01292e-287
1.14378e-286
-8.69647e-286
9.77306e-286
2.4237e-284
-1.22827e-283
4.04179e-284
5.99726e-284
2.81288e-284
-3.50592e-285
-1.24281e-284
-2.23361e-284
1.11412e-284
4.24129e-284
1.54172e-285
-4.17772e-284
2.46016e-283
-1.32778e-283
-2.6029e-283
-3.24462e-284
9.45451e-284
7.10286e-284
8.44063e-284
-1.47225e-284
-3.95979e-284
-2.48537e-284
-8.05759e-285
2.50508e-284
-2.65204e-285
-6.05024e-285
-4.13368e-285
-3.9449e-285
-2.08981e-285
1.79374e-285
2.72448e-285
1.18166e-285
1.26714e-286
-2.88455e-286
-1.51731e-286
-4.0065e-287
1.95276e-287
9.159e-287
-3.41292e-287
-4.59332e-287
-1.34416e-287
1.33384e-287
9.60999e-288
2.8323e-288
-9.06325e-290
-4.60249e-289
-1.95259e-289
4.37283e-290
-5.35018e-289
-1.45162e-289
4.56499e-289
-1.29808e-305
3.12769e-304
-2.71567e-303
3.68216e-302
-2.58275e-301
3.34338e-300
-4.46077e-299
2.72096e-298
-3.30799e-297
2.13486e-296
-2.52207e-295
1.31226e-294
-1.4613e-293
1.71163e-292
-1.4066e-292
5.68976e-292
-2.11231e-292
-1.49308e-291
1.41526e-290
-1.52781e-289
1.60051e-288
-4.14567e-288
3.65153e-287
-3.67894e-286
3.52397e-285
-3.24282e-284
3.53785e-285
7.86219e-284
-6.3477e-283
7.53412e-282
-9.31209e-281
6.70928e-280
-5.04958e-279
3.92274e-278
-3.00348e-277
2.24592e-276
3.32891e-276
-3.36666e-275
2.35203e-274
-8.81052e-275
-5.51627e-275
-1.52304e-274
3.92823e-274
4.77171e-275
-3.8717e-273
1.06326e-272
-4.83018e-272
5.84525e-272
8.68655e-271
-9.35956e-270
3.8909e-269
-3.79561e-269
-1.25035e-268
-1.00188e-268
4.90433e-269
1.21699e-268
9.38084e-269
2.9274e-269
-6.56372e-269
3.82798e-268
-1.54445e-268
-2.14293e-268
-1.45029e-268
6.17868e-268
-3.14071e-268
3.98909e-268
-5.13771e-268
-2.6078e-269
-3.83248e-270
1.80467e-268
-1.42225e-268
-3.94727e-269
-1.46017e-269
-6.29645e-270
-1.18633e-270
-5.2304e-270
1.23326e-270
2.38586e-270
1.31757e-270
3.01133e-271
-1.83691e-272
-1.28837e-271
-4.87474e-272
-2.45663e-273
5.53702e-273
6.60801e-272
-6.30601e-272
-2.04817e-272
7.22002e-273
8.78963e-273
3.55973e-273
-5.79775e-273
4.0368e-273
1.49928e-273
-2.32486e-274
-2.48265e-274
-1.20749e-273
4.48105e-274
4.431e-274
1.09798e-274
2.03787e-290
-2.09503e-289
2.38704e-288
-2.81268e-287
3.21199e-286
-3.47953e-285
3.50904e-284
-3.1688e-283
2.30728e-282
-2.76457e-281
1.97962e-280
-2.27754e-279
2.66299e-278
-2.04556e-277
1.17779e-276
-7.4264e-277
2.07806e-276
-2.54027e-275
1.67909e-275
1.5755e-274
-1.37139e-273
1.32937e-272
-1.26908e-271
9.26505e-271
-5.98461e-270
3.17707e-269
-2.58785e-268
7.50923e-268
-4.96957e-267
3.29897e-266
4.8362e-266
-8.06477e-265
1.79074e-263
-1.15476e-262
4.83132e-262
-2.20394e-261
1.5545e-260
-5.11723e-260
1.62249e-259
-1.07664e-260
-1.28476e-259
6.97166e-259
-8.17325e-258
-1.29601e-258
2.23997e-258
2.197e-258
3.78922e-258
1.66139e-257
-2.11642e-256
1.59373e-255
-8.224e-255
2.41898e-254
4.03898e-254
-2.34128e-253
1.97877e-254
1.20091e-253
7.6953e-254
1.03368e-253
2.85367e-253
-2.39847e-253
-2.30657e-253
-1.06851e-253
9.6792e-254
4.51571e-253
1.97475e-253
-3.21872e-253
-3.35942e-253
-1.63356e-253
3.59091e-254
1.47992e-253
7.89226e-254
1.42032e-254
-2.99318e-254
-2.32462e-254
-6.47812e-255
2.16962e-255
2.66284e-255
1.23746e-255
2.36419e-256
-8.58166e-257
-7.59081e-257
-1.29627e-257
6.2584e-256
-2.54238e-256
-2.80571e-256
-1.12621e-256
6.46302e-257
-7.77159e-257
3.07332e-257
1.02987e-257
-7.64378e-258
8.88674e-258
-6.2173e-258
-6.0129e-258
-3.86813e-258
-4.87289e-259
8.11715e-259
7.84026e-259
1.60416e-259
-6.50921e-260
8.15733e-277
6.31132e-275
-4.96653e-274
6.44299e-273
-8.58891e-272
1.12325e-270
-1.44284e-269
1.81964e-268
-2.25225e-267
1.55735e-266
-1.78623e-265
2.08841e-264
-1.12553e-263
1.19033e-262
-1.30836e-261
1.4021e-260
-6.88736e-260
2.71241e-260
2.36483e-260
-2.57989e-260
3.22361e-259
-3.04395e-258
2.80846e-257
-2.51739e-256
2.18866e-255
-1.84227e-254
1.49804e-253
-1.17369e-252
4.06423e-252
-2.62437e-251
1.69209e-250
-9.90435e-250
-2.59105e-249
2.03426e-248
-1.39545e-247
9.44419e-247
-6.06743e-246
1.79024e-245
-1.04687e-244
1.76015e-244
-8.36069e-244
2.72285e-244
3.14742e-243
-1.21443e-243
-3.39562e-242
1.01618e-241
-4.68179e-241
1.35851e-240
-1.92935e-241
-1.07516e-240
9.47387e-241
8.4116e-241
-5.13574e-239
8.88067e-239
1.52403e-239
1.89049e-239
7.37822e-239
-6.89572e-239
-2.22152e-238
-3.23437e-238
2.53778e-238
3.95538e-238
7.47133e-239
-9.11524e-239
-1.67114e-238
-6.90124e-239
-1.38052e-239
5.25609e-239
4.76803e-239
8.93499e-240
-1.05856e-239
-1.1124e-239
-2.12155e-240
-1.23069e-240
-5.97098e-243
3.12174e-241
2.2116e-241
9.43093e-242
2.46311e-242
-2.58045e-243
6.97127e-244
-7.67029e-242
4.53615e-241
-7.1633e-242
-2.87866e-242
-1.5838e-241
-1.58695e-241
-7.79345e-242
6.0553e-242
4.08204e-242
8.73301e-243
-3.02214e-243
-3.37577e-243
-1.28011e-243
3.21915e-244
4.56698e-244
1.74918e-244
3.30391e-246
-3.35319e-245
1.58679e-245
8.14142e-261
-4.70577e-260
4.64918e-259
-2.07009e-258
-2.80979e-257
9.02282e-256
-1.17285e-254
1.33541e-253
-1.32572e-252
1.5619e-251
-1.40344e-250
1.4212e-249
-1.40932e-248
1.15283e-247
-1.01079e-246
8.78348e-246
-7.17881e-245
4.47352e-244
-1.72672e-243
9.42866e-243
-6.56661e-242
4.1917e-241
-2.14772e-240
-7.02667e-240
3.47511e-240
2.88286e-239
1.71254e-239
-5.36773e-238
5.95179e-237
-3.54431e-236
1.85566e-235
-8.68144e-235
4.56272e-234
-1.78938e-234
-2.41451e-233
3.71704e-232
-2.10816e-231
1.07828e-230
-4.38475e-230
1.25545e-229
-3.53134e-229
3.25966e-229
4.21681e-229
1.2739e-228
-1.31176e-227
2.86227e-227
-1.59297e-226
7.72385e-226
-8.28949e-225
4.36349e-225
4.44868e-224
-3.3019e-224
-3.73909e-224
1.44512e-224
-7.95086e-225
8.17871e-225
7.31417e-224
4.66265e-224
-5.18164e-224
-1.17124e-223
-6.64921e-224
4.78989e-224
7.37588e-224
4.38984e-224
1.3032e-224
-2.07997e-224
-2.57054e-224
-1.53834e-224
2.0934e-225
6.22379e-225
2.85784e-225
1.8823e-225
2.02542e-225
3.76536e-226
-7.43891e-226
-1.45108e-225
-9.12312e-226
2.02683e-225
4.81674e-226
-7.25868e-226
-6.6991e-226
-4.88029e-226
1.74044e-226
1.88021e-226
1.81572e-226
1.21307e-226
-6.22944e-227
-6.01932e-227
-2.16602e-227
-7.26083e-229
3.95509e-228
4.38418e-228
7.4305e-229
-3.9938e-229
-7.02344e-229
-3.27158e-229
1.18077e-229
2.22631e-229
7.2516e-230
-3.56631e-230
-6.94649e-246
3.52228e-245
-4.53508e-244
5.93649e-243
-5.7495e-242
1.40146e-242
2.58291e-240
-3.25057e-239
3.86165e-238
-4.72915e-237
3.59594e-236
-3.92376e-235
4.30473e-234
-4.61311e-233
3.85348e-232
-3.89408e-231
2.9471e-230
-2.82635e-229
1.31924e-228
-4.4232e-228
3.70847e-227
-3.27038e-226
2.77959e-225
1.44561e-224
-5.46693e-225
-1.60597e-224
6.48868e-224
-4.3715e-223
-1.13159e-222
8.14756e-222
-4.8021e-221
2.71188e-220
-4.32981e-219
6.08934e-219
-2.45663e-219
-4.08476e-218
6.04754e-217
-1.61669e-216
8.63893e-216
-3.22226e-215
1.7636e-214
-8.69092e-215
-4.31765e-214
8.88898e-214
6.34133e-213
-2.18666e-213
5.22417e-212
-1.16489e-210
6.23302e-210
1.43577e-210
-1.00227e-209
2.35136e-209
-1.23352e-209
-7.88352e-210
2.51113e-209
2.57468e-209
-2.81321e-209
-5.5106e-209
-3.62056e-209
1.79372e-209
4.07328e-209
3.05611e-209
1.11962e-209
-1.23859e-209
-1.55275e-209
-9.34994e-210
-3.2957e-210
4.17634e-210
2.48737e-210
1.67209e-210
8.5235e-211
5.37325e-211
-2.70505e-211
-5.25802e-211
-3.17769e-211
7.31285e-211
8.47161e-211
-6.93074e-211
-6.72547e-211
-1.73058e-211
-2.11422e-211
1.82398e-211
1.98921e-211
1.46982e-211
-1.43412e-212
-4.63702e-212
-4.64436e-213
-2.09869e-212
-5.44376e-214
2.42419e-213
1.84785e-213
-2.46508e-214
-5.52897e-214
-3.00472e-214
-1.11474e-214
1.96305e-214
1.20169e-214
6.49704e-216
-4.04762e-215
-1.39818e-215
-6.65401e-231
4.83955e-230
-4.21187e-229
4.21231e-228
-5.24958e-227
5.28494e-226
-4.89875e-225
2.31405e-224
-5.04701e-224
-4.10285e-222
7.40032e-221
-5.42498e-220
2.64821e-219
-2.20556e-218
2.85916e-217
-2.13371e-216
1.23778e-215
-1.02806e-214
1.61002e-213
-8.55982e-213
6.04992e-212
-4.32431e-211
4.2075e-210
-2.8021e-209
2.15366e-208
-1.0406e-207
3.0298e-207
-8.34941e-208
1.23614e-205
-3.50283e-206
-2.67105e-205
6.61991e-205
-3.62371e-204
-3.15582e-204
2.49861e-203
-1.06766e-203
-1.64961e-202
1.50751e-201
-1.1786e-200
3.09584e-200
1.17308e-200
1.04372e-199
-3.98824e-199
1.73635e-198
1.5589e-198
9.43615e-198
-1.19842e-196
6.44526e-196
-2.0422e-195
-1.65022e-195
1.25805e-194
-4.33917e-195
-1.19878e-194
-1.4339e-194
9.60804e-195
1.68072e-194
9.52627e-195
-2.18294e-195
-8.54985e-195
-6.91288e-195
-7.10669e-195
-3.88476e-195
6.45196e-195
7.34258e-195
3.35241e-195
-3.69795e-195
9.24643e-196
2.35882e-195
-5.88017e-196
-1.46111e-195
-6.99751e-196
9.31927e-196
3.3349e-196
-5.88447e-196
-1.10233e-195
6.10513e-196
-4.94013e-196
1.75677e-198
1.85832e-196
3.19612e-196
-6.06661e-196
1.21641e-196
2.1094e-196
7.04965e-197
3.89282e-197
-2.19568e-197
-3.79799e-197
-1.65253e-197
-1.00215e-197
4.36839e-198
6.17692e-199
8.5601e-199
3.89396e-199
-1.72886e-199
-4.41571e-199
-1.41365e-199
4.176e-200
4.34392e-200
1.22121e-200
-2.67555e-201
-2.65484e-216
2.3315e-215
-2.41265e-214
3.00426e-213
-2.72602e-212
3.2488e-211
-3.86813e-210
4.51102e-209
-5.1547e-208
5.76857e-207
-6.31892e-206
6.77156e-205
9.46618e-205
-1.38225e-203
-1.70231e-202
1.80937e-201
-2.52935e-201
1.48842e-199
-1.40659e-198
2.582e-198
-1.78726e-197
-1.50803e-196
1.32451e-195
-3.09351e-196
-1.27638e-193
9.55017e-193
-4.25408e-192
2.75327e-191
-1.74524e-190
5.51835e-191
-1.36485e-190
1.03412e-189
-4.89385e-189
-3.58399e-189
1.1127e-189
8.14124e-188
-7.66783e-187
3.3569e-186
-8.33615e-186
3.72038e-185
-9.43182e-186
1.77142e-184
-6.50265e-184
2.2194e-183
-4.18761e-183
-2.42637e-182
7.56938e-182
-4.82581e-181
4.16887e-181
2.349e-180
-7.05011e-180
-1.3338e-180
3.36342e-180
5.25286e-180
4.94774e-180
-8.29912e-180
-6.30465e-180
-2.43271e-180
1.28765e-179
6.65656e-180
-8.11216e-180
6.08345e-180
8.39639e-180
-1.16765e-180
-1.06984e-179
-9.04091e-180
-3.48571e-180
2.38523e-180
4.28892e-180
2.72556e-180
5.08629e-181
-8.99494e-181
-8.59034e-181
-3.76913e-181
1.73105e-181
7.85919e-182
-7.21572e-182
1.2941e-180
-6.03763e-181
-6.69036e-181
2.17139e-181
-3.64255e-181
1.57454e-181
5.98394e-182
-8.67238e-183
-2.82551e-182
-2.89559e-183
4.41737e-183
1.24514e-182
-2.98192e-183
-3.26242e-183
-9.3895e-185
9.67189e-184
4.20442e-184
7.18503e-185
-2.36002e-185
-1.81901e-185
-1.73653e-186
-1.18495e-186
1.66364e-186
1.56258e-201
-1.33193e-200
1.68287e-199
-2.23074e-198
2.30556e-197
-3.58393e-196
4.22843e-195
-4.82666e-194
7.21344e-193
-5.89391e-192
8.5188e-191
-9.05401e-190
5.1462e-189
-6.88451e-188
5.12614e-187
-3.28094e-186
2.97627e-185
-1.67812e-184
2.18407e-183
-1.35095e-182
6.78856e-182
-5.29364e-181
2.21294e-180
-2.85263e-179
1.39613e-178
-5.1641e-178
3.33088e-177
-8.57954e-177
1.11437e-175
-3.64124e-175
6.81625e-175
1.36532e-174
-5.76087e-174
1.99278e-173
3.98695e-174
5.9395e-173
-3.88319e-172
2.03479e-171
-8.81704e-171
2.8761e-170
4.24001e-171
-9.32374e-170
2.69258e-169
-1.01701e-168
1.17941e-168
8.83417e-168
-2.47586e-167
5.94383e-167
1.0315e-166
-1.84665e-165
3.34937e-165
2.62805e-165
-7.21071e-166
-3.78989e-165
-6.20101e-165
2.46043e-165
1.15843e-164
4.06405e-165
-4.16824e-165
-8.91125e-165
-8.72406e-165
5.02857e-166
5.59306e-165
5.26677e-165
2.07831e-165
-7.29494e-166
-1.683e-165
-1.18967e-165
-3.36013e-166
3.01862e-166
-2.78805e-166
1.62971e-165
-2.42024e-165
3.15113e-165
-1.65706e-165
-1.79714e-165
-7.35402e-166
1.76196e-165
1.19269e-165
4.52819e-166
-5.24707e-166
-5.21549e-166
-3.66361e-167
1.33033e-167
7.56951e-167
4.80007e-167
-1.27227e-168
-1.983e-167
-9.87462e-168
-1.52513e-168
1.80261e-168
1.15588e-168
7.78673e-170
1.40026e-170
-7.12789e-170
-1.86687e-170
8.22686e-171
3.41495e-171
2.73204e-171
1.0211e-171
1.35576e-187
-9.56898e-187
-3.48397e-185
9.23524e-184
-1.96084e-182
2.97713e-181
-3.44103e-180
4.08582e-179
-4.74272e-178
5.22861e-177
-5.03465e-176
4.63334e-175
-4.38274e-174
3.82701e-173
-3.39289e-172
2.92387e-171
-2.27768e-170
1.70402e-169
-1.22768e-168
9.29257e-168
-6.79842e-167
4.27624e-166
-2.85084e-165
1.59052e-164
-9.53723e-164
5.41407e-163
-2.84058e-162
1.41364e-161
-6.35937e-161
2.66736e-160
-1.05513e-159
3.52305e-159
-1.06707e-158
1.21893e-158
4.40762e-160
-1.5824e-157
8.76476e-157
-3.42558e-156
7.49075e-156
-1.19014e-155
-1.1113e-155
1.07929e-154
-4.51364e-154
8.4651e-154
5.77313e-154
-1.0656e-152
4.99907e-152
-9.47374e-152
-2.13063e-151
1.29293e-150
-7.70564e-151
-2.92122e-150
1.60948e-152
2.94645e-150
3.26856e-150
1.0217e-150
-3.05811e-150
-3.96691e-150
-2.48043e-150
-1.5624e-151
2.22917e-150
3.78097e-150
4.20176e-151
2.85241e-150
7.14147e-151
5.71281e-151
-2.96921e-150
-1.21393e-149
-4.54505e-150
8.34866e-150
9.89106e-150
3.51969e-150
-3.03943e-150
-5.66248e-150
-2.06657e-150
1.34972e-150
2.00061e-150
9.85353e-151
-3.54556e-151
-6.62387e-151
-3.50676e-151
5.45176e-153
1.27363e-151
7.87154e-152
1.68967e-152
-1.34758e-152
-1.2338e-152
-3.46169e-153
8.26829e-154
1.19179e-153
7.68375e-154
-2.24257e-156
-3.25493e-154
-1.4566e-154
2.97951e-155
4.27095e-155
2.19114e-155
-2.21709e-156
-6.80697e-156
-1.99196e-156
-3.08411e-171
5.10168e-171
-5.17676e-170
6.17919e-169
-7.15202e-168
2.61474e-167
-2.58621e-166
2.81044e-165
-2.96654e-164
-5.06767e-163
5.60788e-162
-5.09961e-161
4.95414e-160
-5.13911e-159
4.78589e-158
-3.96609e-157
3.15679e-156
-2.4163e-155
1.77116e-154
-1.41391e-153
1.09905e-152
-7.2142e-152
5.18676e-151
-3.09165e-150
2.05038e-149
-1.3116e-148
6.60328e-148
-3.77785e-147
1.61456e-146
-5.85892e-146
2.6888e-145
-6.60839e-145
2.2018e-144
-1.66497e-144
-7.26691e-144
5.82724e-143
-3.01577e-142
1.52749e-141
-2.06243e-141
5.06237e-141
5.60803e-141
-2.61262e-140
1.3532e-139
-1.36765e-139
-1.81136e-139
1.21518e-138
-6.50794e-138
5.25638e-138
5.33931e-137
-1.85029e-136
-4.77502e-137
5.46051e-136
1.10992e-136
-1.54179e-136
-1.58232e-136
-5.88157e-136
-3.71207e-136
-2.93966e-136
9.1998e-137
6.84217e-136
8.80483e-136
7.39973e-137
2.7728e-135
-1.14458e-135
-1.57283e-135
-4.40265e-135
-2.94825e-135
2.85008e-135
6.61891e-135
1.6811e-135
-1.09527e-135
-2.68915e-135
-1.68313e-135
1.17778e-136
7.02953e-136
4.70942e-136
-2.07206e-137
-1.95079e-136
-1.3729e-136
-3.07904e-137
2.95345e-137
3.05187e-137
9.14277e-138
-1.78551e-138
-3.4605e-138
-1.67048e-138
-4.19366e-140
3.58067e-139
2.15812e-139
6.99274e-140
-4.30364e-140
-1.34766e-139
1.56014e-140
5.18639e-140
2.60329e-140
3.59717e-141
-2.86124e-141
-1.93358e-141
-3.89548e-142
1.54375e-142
-2.24177e-156
1.74089e-155
8.85162e-155
-1.19509e-153
-1.2377e-152
1.52004e-151
-1.64777e-150
1.75642e-149
-1.83015e-148
-1.41699e-149
1.086e-147
-9.96608e-147
9.50889e-146
-8.82144e-145
7.96868e-144
-7.00232e-143
5.97939e-142
-4.95602e-141
3.98215e-140
-3.09734e-139
2.32831e-138
-1.68833e-137
1.17839e-136
-7.89606e-136
5.06343e-135
-3.09512e-134
1.79428e-133
-9.79669e-133
4.98815e-132
-2.33213e-131
9.74352e-131
-2.42399e-130
6.08529e-130
1.24256e-130
-1.11781e-128
6.16739e-128
-2.10822e-127
8.52377e-127
-1.13955e-126
2.1192e-126
5.35344e-126
-1.54126e-125
6.43465e-125
-1.87456e-125
2.24899e-125
2.26435e-124
-2.09135e-123
9.30094e-124
-2.58717e-122
5.70525e-122
6.99463e-122
-1.64956e-121
-1.53563e-121
6.12095e-122
2.96106e-121
2.30796e-121
-4.37413e-122
1.34325e-121
-8.59486e-121
-7.68887e-121
-1.24226e-120
9.84039e-121
2.86796e-120
3.2948e-120
4.48946e-121
-2.78159e-120
-4.34841e-120
-2.44529e-120
9.60087e-121
1.76301e-120
1.47607e-120
4.67046e-121
-1.20181e-121
-1.90718e-121
-5.58536e-122
4.12419e-122
4.92692e-122
1.80544e-122
-5.327e-123
-9.80723e-123
-4.89764e-123
-2.57288e-124
1.22976e-123
8.27722e-124
1.77881e-124
-1.01226e-124
-9.94822e-125
-3.11125e-125
2.7751e-126
1.06223e-125
1.92401e-124
-3.24004e-123
2.00595e-123
1.91542e-123
-8.60371e-125
-5.00423e-124
-3.9656e-124
-1.49037e-125
8.15472e-125
3.49905e-125
-1.10299e-140
6.65901e-140
-5.24047e-139
5.82537e-138
-5.51379e-137
5.50373e-136
-5.39795e-135
4.6657e-134
-4.22755e-133
3.70859e-132
-3.57778e-131
2.54091e-130
-1.48066e-129
1.29623e-128
-5.15684e-128
4.12468e-127
-2.16513e-126
1.68666e-125
-1.31485e-124
7.87738e-124
-4.19511e-123
1.87598e-122
-1.23741e-121
8.02054e-121
-2.19366e-120
-3.89524e-120
7.48963e-119
-3.88465e-118
1.84171e-117
-6.69725e-117
2.27229e-116
-5.79374e-116
3.09146e-116
5.77835e-115
-4.64966e-114
2.58414e-113
-1.2168e-112
3.74107e-112
-7.95373e-112
5.37049e-112
4.10659e-111
-1.94795e-110
2.46618e-110
3.87431e-111
-2.44887e-109
9.84578e-109
-1.08707e-108
-2.3397e-108
1.00874e-107
-8.49467e-108
-3.29834e-107
2.92676e-107
9.754e-107
-5.06619e-108
-2.29288e-106
-2.14743e-106
2.22538e-106
6.0974e-106
2.89917e-106
-6.75303e-106
-1.36788e-105
-9.52508e-106
3.82837e-106
1.56769e-105
1.57756e-105
1.06075e-105
-4.8754e-106
-1.05917e-105
-6.73244e-106
-5.4936e-106
-4.33712e-106
-1.45921e-106
1.34741e-105
1.22163e-105
-1.85898e-106
-1.37547e-105
-7.499e-106
2.13523e-106
4.22287e-106
4.22144e-106
-5.78804e-107
-3.94556e-106
-1.63138e-106
1.51662e-106
1.80724e-106
4.37758e-107
-1.60584e-107
-5.13648e-107
-4.34518e-107
5.0386e-108
1.29574e-107
7.74435e-108
8.84238e-109
-6.19505e-109
-1.27996e-108
-5.31057e-109
9.70816e-110
1.96393e-109
7.65685e-110
-1.43299e-110
3.79859e-126
-2.77166e-125
2.03699e-124
-2.20391e-123
1.01648e-122
-1.00956e-121
1.05672e-120
-1.07603e-119
1.07015e-118
-1.96891e-117
1.90692e-116
-9.27521e-116
7.95837e-115
-6.98084e-114
3.56355e-113
-2.84458e-112
8.30115e-112
-5.91748e-111
4.50615e-110
-3.27452e-109
2.29601e-108
-1.54895e-107
1.00301e-106
-6.21634e-106
3.67455e-105
-1.1718e-104
3.70128e-104
3.14423e-104
-1.41335e-103
5.10555e-103
-1.69552e-102
3.5322e-102
4.43187e-102
-1.02853e-100
7.75296e-101
-3.04091e-99
1.5185e-98
-4.34129e-98
9.2435e-98
-1.60848e-98
-8.68452e-97
3.28428e-96
-2.52905e-96
-6.63739e-96
3.81984e-95
-8.85632e-95
4.18652e-95
7.74087e-94
-3.45022e-93
7.87033e-94
1.76377e-92
-7.54455e-93
-3.74266e-92
-1.42544e-92
4.30631e-92
7.08735e-92
1.73301e-92
-7.9869e-92
-1.13479e-91
-1.76962e-92
1.50848e-91
2.56916e-91
2.10885e-91
3.58643e-92
-6.65858e-92
-4.91953e-91
8.05184e-91
-8.27186e-91
-2.33825e-91
-2.05829e-91
1.0833e-90
8.92612e-91
-4.49713e-91
-7.80436e-91
-5.36591e-91
2.11866e-91
1.51996e-91
2.9137e-92
-1.92125e-92
-3.00942e-91
-1.415e-91
1.67415e-91
2.02041e-91
5.76642e-92
3.34607e-93
-5.27054e-92
-4.85389e-92
-3.13884e-93
1.2166e-92
9.60946e-93
2.85909e-93
-7.86763e-94
-1.12408e-93
-5.53564e-94
5.7659e-96
1.19986e-94
6.2032e-95
8.56848e-96
-7.17393e-96
-3.69288e-96
-3.63123e-111
2.56331e-110
-3.50676e-109
3.12389e-108
-2.89129e-107
2.99249e-106
-2.21273e-105
2.15715e-104
-2.0948e-103
2.30093e-102
-1.86251e-101
1.42346e-100
-8.41103e-100
5.31874e-99
-3.07478e-98
3.27446e-97
-2.57061e-96
1.53588e-95
-5.82129e-95
3.91934e-94
-2.65004e-93
1.31438e-92
-6.19663e-92
1.81925e-91
-1.00296e-90
5.40689e-90
-2.43332e-89
1.0056e-88
-3.31368e-88
1.43981e-87
-4.50695e-87
9.62382e-87
8.04874e-87
-1.4367e-85
9.25316e-85
-3.90203e-84
1.23863e-83
-2.24067e-83
2.84255e-83
5.50951e-83
-2.02558e-82
8.6227e-82
-8.00727e-82
-4.31185e-81
1.25324e-80
-1.07346e-80
-1.89691e-80
-1.04224e-79
6.97447e-79
7.32989e-79
-3.69792e-78
-1.24327e-78
4.09651e-78
-4.63151e-78
6.90894e-78
3.91426e-77
1.6539e-77
-1.06599e-76
-2.26234e-76
-7.91417e-77
3.22536e-76
6.05421e-76
3.47448e-76
-4.49666e-76
-1.34072e-75
-1.29056e-75
-5.55091e-77
1.05446e-75
1.41829e-75
7.68745e-76
-1.45542e-76
-5.19036e-76
1.02224e-76
-1.09233e-76
-1.31033e-76
-2.36307e-76
-1.56174e-76
-4.58438e-76
4.79551e-77
3.04761e-76
2.94115e-76
1.27867e-76
-3.91026e-78
-8.54195e-77
-6.28138e-77
-2.15485e-77
8.54319e-78
1.26208e-77
6.21214e-78
5.78506e-79
-1.2748e-78
-9.77811e-79
-2.79213e-79
8.56375e-80
1.08763e-79
4.08203e-80
-5.51032e-81
-8.56645e-81
-3.64655e-81
2.47649e-82
-2.01497e-96
1.41369e-95
-1.63822e-94
1.77774e-93
-1.94318e-92
1.8766e-91
-1.80273e-90
1.63709e-89
-1.44048e-88
1.2285e-87
-1.05612e-86
8.83513e-86
-7.48479e-85
5.64938e-84
-3.87109e-83
2.65381e-82
-1.73694e-81
1.16254e-80
-7.48275e-80
3.77139e-79
-1.77375e-78
8.28542e-78
-4.09525e-77
1.86274e-76
-2.84174e-76
1.23136e-75
-5.71593e-75
2.18615e-74
-8.29684e-74
2.57805e-73
-5.71858e-73
5.88802e-73
3.38736e-72
-3.49693e-71
1.74918e-70
-6.15977e-70
1.59503e-69
-3.32469e-69
1.58254e-69
2.1528e-68
-9.48329e-68
1.56709e-67
2.44176e-67
-2.21659e-66
5.64636e-66
-1.35534e-66
-2.90006e-65
8.0027e-65
3.40185e-66
-4.43152e-64
3.90787e-64
1.17562e-63
4.11067e-64
-5.66671e-63
-4.83224e-63
1.53811e-62
2.98243e-62
-1.45954e-63
-8.64355e-62
-1.12761e-61
-5.78407e-62
1.33502e-61
2.52373e-61
1.83929e-61
1.69116e-62
-3.42602e-61
-4.15758e-61
-1.76476e-61
3.39827e-61
6.50197e-62
-3.25112e-61
-1.2719e-62
3.8609e-61
5.35591e-61
6.26449e-61
1.38903e-61
-2.4542e-61
-5.16148e-61
-3.96831e-61
-1.76085e-61
7.1097e-63
7.33258e-62
6.2272e-62
2.32996e-62
-1.09649e-63
-8.54092e-63
-5.60116e-63
-1.50681e-63
5.17126e-64
7.31421e-64
3.22428e-64
2.36189e-65
-6.2601e-65
-3.96294e-65
-7.90438e-66
4.30649e-66
3.83772e-66
1.02539e-66
-2.92896e-67
-2.54766e-67
-1.85475e-82
1.21936e-81
-1.31361e-80
1.36746e-79
2.36335e-78
-2.53596e-77
2.4468e-76
-2.31489e-75
2.13413e-74
-1.91606e-73
1.67389e-72
-1.42159e-71
1.17253e-70
-9.38228e-70
7.27473e-69
-5.45875e-68
3.9584e-67
-2.76957e-66
1.86641e-65
-9.4773e-65
5.82806e-64
-3.47222e-63
1.96729e-62
-1.05933e-61
2.01763e-62
-7.53893e-62
4.66537e-61
-1.79915e-60
6.68791e-60
-2.08808e-59
4.86676e-59
-3.24387e-59
-4.72595e-58
3.55861e-57
-1.65209e-56
5.76745e-56
-1.50429e-55
2.42706e-55
7.57435e-56
-1.92608e-54
5.65338e-54
-1.34402e-54
-5.19313e-53
2.06978e-52
-2.68181e-52
-8.07516e-52
4.04585e-51
-1.48351e-51
-1.78444e-50
4.77637e-50
3.18955e-50
-6.14916e-50
-2.51689e-49
5.14205e-49
1.26064e-48
-3.81125e-49
-3.75647e-48
-4.57456e-48
5.68483e-48
6.71641e-48
5.11019e-47
-5.35865e-47
-7.24526e-47
-1.78769e-46
-3.47877e-47
9.17964e-47
1.75398e-46
1.96961e-46
-3.08139e-46
1.59709e-46
2.7456e-46
2.14708e-46
4.10693e-47
-3.18954e-48
-1.90256e-46
-2.07543e-46
-1.49364e-46
-6.34894e-47
-3.04588e-50
2.48441e-47
1.85109e-47
8.6467e-48
1.76742e-48
-1.0219e-48
-1.21321e-48
-5.72759e-49
-6.9257e-50
1.01617e-49
8.27586e-50
2.7207e-50
-2.63498e-51
-9.68204e-51
-2.90653e-51
3.07333e-52
7.44419e-52
3.26083e-52
1.08284e-53
-7.29796e-53
-7.04666e-54
5.72613e-54
3.98945e-66
-2.5255e-65
1.70961e-64
-1.69084e-63