/*--------------------------------*- C++ -*----------------------------------*\
  =========                 |
  \\      /  F ield         | OpenFOAM: The Open Source CFD Toolbox
   \\    /   O peration     | Website:  https://openfoam.org
    \\  /    A nd           | Version:  13
     \\/     M anipulation  |
\*---------------------------------------------------------------------------*/
FoamFile
{
    format      ascii;
    class       volScalarField;
    location    "2.6";
    object      T;
}
// * * * * * * * * * * * * * * * * * * * * * * * * * * * * * * * * * * * * * //

dimensions      [0 0 0 1 0 0 0];

internalField   nonuniform List<scalar> 
10000
(
0
0
0
0
0
0
0
0
0
0
0
0
0
0
0
0
0
0
0
0
0
0
0
0
0
0
0
0
0
0
0
0
0
0
0
0
0
0
0
0
0
0
0
0
0
0
0
0
0
0
0
0
0
0
0
0
0
0
0
0
0
0
0
0
0
0
0
0
0
0
0
0
0
0
0
0
0
0
0
0
0
0
0
0
0
0
0
0
0
0
0
0
0
0
0
0
0
0
0
0
0
0
0
0
0
0
0
0
0
0
0
0
0
0
0
0
0
0
0
0
0
0
0
0
0
0
0
0
0
0
0
0
0
0
0
0
0
0
0
0
0
0
0
0
0
0
0
0
0
0
0
0
0
0
0
0
0
0
0
0
0
0
0
0
0
0
0
0
0
0
0
0
0
0
0
0
0
0
0
0
0
0
0
0
0
0
0
0
0
0
0
0
0
0
0
0
0
0
0
0
0
0
0
0
0
0
0
0
0
0
0
0
0
0
0
0
0
0
0
0
0
0
0
0
0
0
0
0
0
0
0
0
0
0
0
0
0
0
0
0
0
0
0
0
0
0
0
0
0
0
0
0
0
0
0
0
0
0
0
0
0
0
0
0
0
0
0
0
0
0
0
0
0
0
0
0
0
0
0
0
0
0
0
0
0
0
0
0
0
0
0
0
0
0
0
0
0
0
0
0
0
0
0
0
0
0
0
0
0
0
0
0
0
0
0
0
0
0
0
0
0
0
0
0
0
0
0
0
0
0
0
0
0
0
0
0
0
0
0
0
0
0
0
0
0
0
0
0
0
0
0
0
0
0
0
0
0
0
0
0
0
0
0
0
0
0
0
0
0
0
0
0
0
0
0
0
0
0
0
0
0
0
0
0
0
0
0
0
0
0
0
0
0
0
0
0
0
0
0
0
0
0
0
0
0
0
0
0
0
0
0
0
0
0
0
0
0
0
0
0
0
0
0
0
0
0
0
0
0
0
0
0
0
0
0
0
0
0
0
0
0
0
0
0
0
0
0
0
0
0
0
0
0
0
0
0
0
0
0
0
0
0
0
0
0
0
0
0
0
0
0
0
0
0
0
0
0
0
0
0
0
0
0
0
0
0
0
0
0
0
0
0
0
0
0
0
0
0
0
0
0
0
0
0
0
0
0
0
0
0
0
0
0
0
0
0
0
0
0
0
0
0
0
0
0
0
0
0
0
0
0
0
0
0
0
0
0
0
0
0
0
0
0
0
0
0
0
0
0
0
0
0
0
0
0
0
0
0
0
0
0
0
0
0
0
0
0
0
0
0
0
0
0
0
0
0
0
0
0
0
0
0
0
0
0
0
0
0
0
0
0
0
0
0
0
0
0
0
0
0
0
0
0
0
0
0
0
0
0
0
0
0
0
0
0
0
0
0
0
0
0
0
0
0
0
0
0
0
0
0
0
0
0
0
0
0
0
0
0
0
0
0
0
0
0
0
0
0
0
0
0
0
0
0
0
0
0
0
0
0
0
0
0
0
0
0
0
0
0
0
0
0
0
0
0
0
0
0
0
0
0
0
0
0
0
0
0
0
0
0
0
0
0
0
0
0
0
0
0
0
0
0
0
0
0
0
0
0
0
0
0
0
0
0
0
0
0
0
0
0
0
0
0
0
0
0
0
0
0
0
0
0
0
0
0
0
0
0
0
0
0
0
0
0
0
0
0
0
0
0
0
0
0
0
0
0
0
0
0
0
0
0
0
0
0
0
0
0
0
0
0
0
0
0
0
0
0
0
0
0
0
0
0
0
0
0
0
0
0
0
0
0
0
0
0
0
0
0
0
0
0
0
0
0
0
0
0
0
0
0
0
0
0
0
0
0
0
0
0
0
0
0
0
0
0
0
0
0
0
0
0
0
0
0
0
0
0
0
0
0
0
0
0
0
0
0
0
0
0
0
0
0
0
0
0
0
0
0
0
0
0
0
0
0
0
0
0
0
0
0
0
0
0
0
0
0
0
0
0
0
0
0
0
0
0
0
0
0
0
0
0
0
0
0
0
0
0
0
0
0
0
0
0
0
0
0
0
0
0
0
0
0
0
0
0
0
0
0
0
0
0
0
0
0
0
0
0
0
0
0
0
0
0
0
0
0
0
0
0
0
0
0
0
0
0
0
0
0
0
0
0
0
0
0
0
0
0
0
0
0
0
0
0
0
0
0
0
0
0
0
0
0
0
0
0
0
0
0
0
0
0
0
0
0
0
0
0
0
0
0
0
0
0
0
0
0
0
0
0
0
0
0
0
0
0
0
0
0
0
0
0
0
0
0
0
0
0
0
0
0
0
0
0
0
0
0
0
0
0
0
0
0
0
0
0
0
0
0
0
0
0
0
0
0
0
0
0
0
0
0
0
0
0
0
0
0
0
0
0
0
0
0
0
0
0
0
0
0
0
0
0
0
0
0
0
0
0
0
0
0
0
0
0
0
0
0
0
0
0
0
0
0
0
0
0
0
0
0
0
0
0
0
0
0
0
0
0
0
0
0
0
0
0
0
0
0
0
0
0
0
0
0
0
0
0
0
0
0
0
0
0
0
0
0
0
0
0
0
0
0
0
0
0
0
0
0
0
0
0
0
0
0
0
0
0
0
0
0
0
0
0
0
0
0
0
0
0
0
0
0
0
0
0
0
0
0
0
0
0
0
0
0
0
0
0
0
0
0
0
0
0
0
0
0
0
0
0
0
0
0
0
0
0
0
0
0
0
0
0
0
0
0
0
0
0
0
0
0
0
0
0
0
0
0
0
0
0
0
0
0
0
0
0
0
0
0
0
0
0
0
0
0
0
0
0
0
0
0
0
0
0
0
0
0
0
0
0
0
0
0
0
0
0
0
0
0
0
0
0
0
0
0
0
0
0
0
0
0
0
0
0
0
0
0
0
0
0
0
0
0
0
0
0
0
0
0
0
0
0
0
0
0
0
0
0
0
0
0
0
0
0
0
0
0
0
0
0
0
0
0
0
0
0
0
0
0
0
0
0
0
0
0
0
0
0
0
0
0
0
0
0
0
0
0
0
0
0
0
0
0
0
0
0
0
0
0
0
0
0
0
0
0
0
0
0
0
0
0
0
0
0
0
0
0
0
0
0
0
0
0
0
0
0
0
0
0
0
0
0
0
0
0
0
0
0
0
0
0
0
0
0
0
0
0
0
0
0
0
0
0
0
0
0
0
0
0
0
0
0
0
0
0
0
0
0
0
0
0
0
0
0
0
0
0
0
0
0
0
0
0
0
0
0
0
0
0
0
0
0
0
0
0
0
0
0
0
0
0
0
0
0
0
0
0
0
0
0
0
0
0
0
0
0
0
0
0
0
0
0
0
0
0
0
0
0
0
0
0
0
0
0
0
0
0
0
0
0
0
0
0
0
0
0
0
0
0
0
0
0
0
0
0
0
0
0
0
0
0
0
0
0
0
0
0
0
0
0
0
0
0
0
0
0
0
0
0
0
0
0
0
0
0
0
0
0
0
0
0
0
0
0
0
0
0
0
0
0
0
0
0
0
0
0
0
0
0
0
0
0
0
0
0
0
0
0
0
0
0
0
0
0
0
0
0
0
0
0
0
0
0
0
0
0
0
0
0
0
0
0
0
0
0
0
0
0
0
0
0
0
0
0
0
0
0
0
0
0
0
0
0
0
0
0
0
0
0
0
0
0
0
0
0
0
0
0
0
0
0
0
0
0
0
0
0
0
0
0
0
0
0
0
0
0
0
0
0
0
0
0
0
0
0
0
0
0
0
0
0
0
0
0
0
0
0
0
0
0
0
0
0
0
0
0
0
0
0
0
0
0
0
0
0
0
0
0
0
0
0
0
0
0
0
0
0
0
0
0
0
0
0
0
0
0
0
0
0
0
0
0
0
0
0
0
0
0
0
0
0
0
0
0
0
0
0
0
0
0
0
0
0
0
0
0
0
0
0
0
0
0
0
0
0
0
0
0
0
0
0
0
0
0
0
0
0
0
0
0
0
0
0
0
0
0
0
0
0
0
0
0
0
0
0
0
0
0
0
0
0
0
0
0
0
0
0
0
0
0
0
0
0
0
0
0
0
0
0
0
0
0
0
0
0
0
0
0
0
0
0
0
0
0
0
0
0
0
0
0
0
0
0
0
0
0
0
0
0
0
0
0
0
0
0
0
0
0
0
0
0
0
0
0
0
0
0
0
0
0
0
0
0
0
0
0
0
0
0
0
0
0
0
0
0
0
0
0
0
0
0
0
0
0
0
0
0
0
0
0
0
0
0
0
0
0
0
0
0
0
0
0
0
0
0
0
0
0
0
0
0
0
0
0
0
0
0
0
0
0
0
0
0
0
0
0
0
0
0
0
0
0
0
0
0
0
0
0
0
0
0
0
0
0
0
0
0
0
0
0
0
0
0
0
0
0
0
0
0
0
0
0
0
0
0
0
0
0
0
0
0
0
0
0
0
0
0
0
0
0
0
0
0
0
0
0
0
0
0
0
0
0
0
0
0
0
0
0
0
0
0
0
0
0
0
0
0
0
0
0
0
0
0
0
0
0
0
0
0
0
0
0
0
0
0
0
0
0
0
0
0
0
0
0
0
0
0
0
0
0
0
0
0
0
0
0
0
0
0
0
0
0
0
0
0
0
0
0
0
0
0
0
0
0
0
0
0
0
0
0
0
0
0
0
0
0
0
0
0
0
0
0
0
0
0
0
0
0
0
0
0
0
0
0
0
0
0
0
0
0
0
0
0
0
0
0
0
0
0
0
0
0
0
0
0
0
0
0
0
0
0
0
0
0
0
0
0
0
0
0
0
0
0
0
0
0
0
0
0
0
0
0
0
0
0
0
0
0
0
0
0
0
0
0
0
0
0
0
0
0
0
0
0
0
0
0
0
0
0
0
0
0
0
0
0
0
0
0
0
0
0
0
0
0
0
0
0
0
0
0
0
0
0
0
0
0
0
0
0
0
0
0
0
0
0
0
0
0
0
0
0
0
0
0
0
0
0
0
0
0
0
0
0
0
0
0
0
0
0
0
0
0
0
0
0
0
0
0
0
0
0
0
0
0
0
0
0
0
0
0
0
0
0
0
0
0
0
0
0
0
0
0
0
0
0
0
0
0
0
0
0
0
0
0
0
0
0
0
0
0
0
0
0
0
0
0
0
0
0
0
0
0
0
0
0
0
0
0
0
0
0
0
0
0
0
0
0
0
0
0
0
0
0
0
0
0
0
0
0
0
0
0
0
0
0
0
0
0
0
0
0
0
0
0
0
0
0
0
0
0
0
0
0
0
0
0
0
0
0
0
0
0
0
0
0
0
0
0
0
0
0
0
0
0
0
0
0
0
0
0
0
0
0
0
0
0
0
0
0
0
0
0
0
0
0
0
0
0
0
0
0
0
0
0
0
0
0
0
0
0
0
0
0
0
0
0
0
0
0
0
0
0
0
0
0
0
0
0
0
0
0
0
0
0
0
0
0
0
0
0
0
0
0
0
0
0
0
-4.88137e-321
2.95105e-320
-1.22805e-319
3.57526e-319
2.83396e-320
-6.59506e-318
8.1704e-318
-5.22851e-318
3.10582e-317
-9.28287e-318
-6.36341e-316
3.26834e-315
-7.58339e-315
2.61103e-314
1.19147e-314
-1.13225e-314
-3.6826e-314
2.11274e-313
-1.39588e-312
2.28492e-314
6.92148e-313
2.05963e-312
2.16656e-312
-8.04099e-313
-3.9134e-312
-4.25877e-312
5.76778e-312
3.70968e-312
-4.19813e-313
-2.53873e-312
-2.20257e-312
1.72834e-312
-1.42734e-311
2.89807e-312
8.24811e-312
4.2922e-312
1.05352e-311
-5.41661e-312
-7.3968e-312
-2.51389e-312
9.23228e-314
-1.66341e-312
7.53787e-313
4.01682e-312
-9.15833e-313
6.27275e-312
-7.85582e-312
1.00758e-312
3.55961e-312
-3.78262e-312
1.08824e-313
5.96301e-313
2.04131e-312
-1.15182e-312
1.23724e-313
-3.92113e-313
-1.42739e-313
5.80697e-314
1.05233e-314
5.25166e-314
3.09066e-314
5.58479e-315
-3.46745e-315
-1.4457e-314
2.58797e-315
4.09157e-315
0
0
0
0
0
0
0
0
-1.01036e-320
8.48162e-320
-4.9283e-319
1.58015e-318
-2.57761e-318
1.76227e-317
3.47219e-319
-6.34459e-317
6.23305e-317
-1.16023e-316
-4.04948e-316
6.79458e-315
-7.68226e-314
5.24673e-313
-3.34353e-312
2.46088e-311
-1.37291e-310
6.90625e-310
-2.22025e-309
6.49807e-309
-3.55539e-308
1.21255e-307
-2.46475e-307
1.42904e-307
-6.3091e-307
-1.22533e-306
-2.51346e-306
8.49844e-305
-3.19194e-304
1.34595e-303
3.54809e-304
-3.22406e-303
1.19875e-303
6.85226e-304
1.77596e-303
2.3945e-302
-2.38207e-301
1.08861e-300
-3.08598e-300
5.33935e-300
3.57123e-299
-4.23289e-298
8.7232e-298
3.97062e-298
-5.72061e-298
-6.98114e-298
-3.03755e-298
1.78387e-298
7.51453e-298
6.35982e-298
-5.90856e-298
-1.03904e-297
7.3168e-298
2.70644e-297
-1.01883e-296
1.39627e-297
1.21899e-296
7.23751e-297
-6.38965e-297
-1.19305e-296
-3.23391e-297
2.69744e-297
6.1544e-297
4.8312e-297
-1.29706e-297
-5.53606e-297
-2.74945e-297
4.75842e-297
5.08339e-298
1.20789e-297
2.30972e-297
-7.46436e-298
-5.94118e-297
-3.22734e-297
1.66412e-297
2.26253e-297
1.77221e-297
1.37824e-297
-6.21633e-298
-9.72093e-298
-5.12876e-298
5.96861e-299
2.20226e-298
8.23243e-299
-3.30931e-299
-3.58712e-299
-1.02234e-299
3.59743e-300
8.84598e-300
-7.36372e-300
8.60011e-301
4.47007e-300
1.31969e-312
-7.16716e-312
3.85801e-311
-1.61119e-310
1.42152e-309
-5.13556e-309
4.24266e-308
-3.74848e-307
8.45651e-307
-2.50123e-305
1.34587e-304
-1.04567e-303
4.14694e-303
-1.56045e-302
1.6865e-303
1.84683e-302
-8.61706e-303
8.12071e-302
-2.68331e-301
4.82609e-302
9.36378e-300
-8.86452e-299
6.65122e-298
-4.32566e-297
2.46761e-296
-1.19009e-295
7.16705e-295
-2.30995e-294
7.3152e-294
-3.60806e-293
4.76468e-293
-1.67503e-292
3.1348e-292
5.63071e-293
-4.64442e-292
-3.26706e-290
2.0435e-289
-5.87571e-289
5.37901e-289
8.19683e-289
2.36457e-290
1.78911e-288
-9.47909e-288
-7.37338e-288
3.59006e-287
-1.37345e-286
3.33138e-286
1.19071e-285
-2.67116e-284
1.69851e-283
-2.36427e-283
-1.8069e-283
2.61893e-284
1.89058e-283
1.84956e-283
6.21564e-284
1.06195e-284
-7.99843e-283
1.05454e-283
5.32872e-283
2.5141e-283
-1.6696e-282
5.87125e-282
1.33035e-282
-2.72448e-282
-3.5268e-282
-1.89687e-282
1.43811e-282
1.09892e-282
5.10417e-283
-6.66151e-284
-5.33379e-283
-8.65437e-283
9.06915e-283
1.23987e-282
-6.2128e-283
9.8774e-283
-2.46231e-284
-1.80641e-282
-1.60459e-282
2.10563e-283
6.71167e-283
7.86141e-283
4.115e-283
7.82826e-285
-3.18283e-283
-1.98202e-283
1.25317e-284
8.49886e-284
3.24787e-284
-1.92358e-284
-1.77888e-284
-4.1107e-285
3.12891e-285
3.24921e-285
1.2275e-285
-1.18851e-285
6.0718e-285
4.44201e-285
-6.64594e-285
-2.74689e-298
3.59577e-297
-2.1293e-296
1.90839e-295
-8.8905e-295
7.58002e-294
-6.68597e-293
2.67272e-292
-2.12493e-291
8.96837e-291
-6.89038e-290
2.31141e-289
-1.66273e-288
1.25732e-287
-5.08582e-288
8.62182e-288
-1.85719e-288
-2.22089e-287
9.421e-287
-4.92407e-286
2.01175e-285
9.76114e-285
-8.55182e-284
6.64202e-283
-4.79566e-282
3.20942e-281
-1.03472e-280
5.41327e-280
-2.7749e-279
1.2707e-278
-5.04427e-278
8.2837e-279
-1.61274e-278
-3.48593e-277
3.5603e-276
-2.20954e-275
-2.9119e-275
1.02248e-274
-1.7573e-276
-1.02509e-273
-1.10822e-274
-5.28376e-274
3.3784e-273
-6.7901e-274
-2.32642e-272
3.00472e-272
2.41449e-272
-9.49097e-271
6.5885e-270
-2.2263e-269
1.67034e-269
5.38141e-269
2.94233e-268
-2.14962e-268
-3.51057e-268
-1.63101e-268
1.16521e-268
3.50744e-268
1.42244e-268
-1.16262e-267
1.21352e-267
1.2942e-267
-1.15397e-267
-1.30793e-267
4.52928e-267
-5.85277e-267
1.07615e-267
-5.97385e-268
-7.10577e-268
-3.30112e-268
4.73005e-268
1.80251e-267
1.01693e-267
1.22933e-268
-5.04909e-268
1.86024e-267
-1.16517e-267
-1.08336e-267
-2.95726e-268
1.79276e-268
2.27244e-268
2.68632e-268
4.03584e-269
-7.65744e-269
-8.2413e-269
-1.31979e-269
2.83029e-269
4.58369e-271
-1.51572e-269
-1.16979e-269
-3.196e-270
2.33211e-269
-1.53647e-269
-8.19185e-270
9.57885e-271
1.5958e-270
1.40894e-269
-3.59721e-270
-5.57218e-270
-1.90386e-270
2.39824e-283
-1.58302e-282
1.24138e-281
-9.66902e-281
7.30894e-280
-5.22435e-279
3.46633e-278
-2.05216e-277
9.74306e-277
-7.62522e-276
3.54119e-275
-2.63684e-274
1.98985e-273
-9.75742e-273
3.54465e-272
-9.20073e-273
8.10296e-273
-1.1297e-271
1.48542e-271
2.80963e-271
-1.58684e-270
6.18748e-270
-1.45227e-269
-1.11673e-268
1.46957e-267
-1.08529e-266
6.57772e-266
-3.26465e-265
1.54629e-264
-6.57491e-264
1.64018e-263
-2.9896e-263
-1.57027e-262
1.24677e-261
-4.83126e-261
1.51869e-260
-5.73711e-260
5.58977e-260
7.33335e-260
-2.38491e-259
-2.61039e-259
2.72372e-258
-1.40138e-257
-3.12309e-258
7.2102e-258
1.11752e-257
-7.18304e-258
1.25222e-256
-5.42375e-256
1.08237e-255
4.40733e-255
-5.47545e-254
1.6436e-253
4.17009e-254
-2.07442e-253
-1.75571e-253
4.90914e-254
-1.57118e-253
2.97621e-253
1.12238e-252
2.61917e-253
-2.2262e-253
-3.45019e-252
-3.32399e-252
3.84013e-252
7.2996e-252
1.50293e-252
-2.68226e-252
-6.04958e-252
-4.99496e-252
1.39728e-252
4.00591e-252
3.6305e-252
6.35659e-253
-1.07469e-252
-1.65908e-252
-9.92903e-253
-8.31129e-254
4.67441e-253
4.06546e-253
1.4943e-253
-1.83136e-254
-3.10003e-253
6.59078e-254
1.05083e-253
2.62706e-254
2.18473e-254
-4.88256e-254
-3.17389e-254
1.11335e-254
6.26679e-255
-2.65057e-254
2.2578e-254
2.495e-254
1.59321e-254
-3.99182e-256
-7.88177e-255
-7.493e-255
-1.01048e-255
1.77475e-255
4.7153e-269
3.16125e-268
-1.7212e-267
1.46322e-266
-1.29219e-265
1.11334e-264
-9.39745e-264
7.76445e-263
-6.27528e-262
2.81026e-261
-2.09087e-260
1.58139e-259
-5.41162e-259
3.67291e-258
-2.57251e-257
1.73362e-256
-5.20501e-256
4.94611e-257
1.41406e-256
3.55281e-257
3.73063e-256
-1.47921e-255
6.14451e-255
-1.85703e-254
8.75042e-255
4.54927e-253
-4.81427e-252
3.47722e-251
-1.83777e-250
7.20919e-250
-2.36778e-249
4.00784e-249
2.9263e-248
-1.65582e-247
8.51834e-247
-3.40448e-246
9.39823e-246
-6.0925e-247
-6.22216e-245
1.90315e-244
-5.28262e-244
-5.66251e-244
4.44808e-243
-1.62827e-244
-4.13441e-242
1.45697e-241
-4.66135e-241
6.86773e-241
7.1838e-241
1.89172e-242
-3.05587e-240
1.22647e-239
-3.89575e-239
-5.16468e-239
2.03265e-239
-2.42151e-239
1.75556e-238
1.66758e-238
4.44469e-238
-8.3167e-238
-1.13902e-237
-4.82347e-238
1.07945e-237
1.91353e-237
5.10977e-238
-6.66869e-238
-1.48637e-237
-8.06875e-238
-1.32352e-238
9.42472e-238
8.13979e-238
1.99971e-238
-9.52225e-239
-3.78658e-238
-2.60548e-238
-5.525e-239
6.59758e-239
8.0986e-239
4.33755e-239
5.97022e-240
-1.31014e-239
1.48932e-239
-1.84297e-238
3.63494e-239
3.41555e-239
1.19837e-238
5.5488e-239
-3.7224e-240
-6.8207e-239
-3.52677e-239
5.89467e-241
1.15403e-239
1.25074e-239
1.48968e-240
-3.17027e-240
-2.77697e-240
-1.01448e-240
1.77691e-241
6.9059e-241
-4.41415e-241
6.50917e-254
-1.55166e-253
1.05417e-252
-3.10777e-252
-2.8233e-251
5.93441e-250
-5.04794e-249
3.74626e-248
-2.41741e-247
1.84951e-246
-1.07014e-245
6.96673e-245
-4.42064e-244
2.29043e-243
-1.26725e-242
6.89664e-242
-3.48799e-241
1.32251e-240
-2.9955e-240
9.92725e-240
-4.15739e-239
1.4839e-238
-3.89569e-238
-1.21995e-237
3.37478e-238
-1.98676e-237
5.12521e-237
2.4978e-237
-9.51576e-236
3.50887e-235
-9.6007e-235
1.1825e-234
5.62539e-234
-8.18508e-233
4.19173e-232
-8.44277e-232
4.72593e-232
5.8797e-231
-3.94252e-230
1.17654e-229
-2.28398e-229
5.93692e-230
5.04977e-229
1.15701e-228
-8.62678e-228
2.1644e-227
-6.29165e-227
8.69958e-227
2.5091e-226
-9.36746e-225
8.55091e-225
1.92951e-224
-3.00819e-225
-1.75188e-224
-1.00801e-224
-4.54862e-224
-3.1654e-224
9.75337e-224
1.99627e-223
7.39962e-224
-2.38482e-223
-2.9217e-223
-1.72123e-223
1.76082e-223
3.39701e-223
3.09373e-223
-3.2871e-224
-2.39791e-223
-2.69164e-223
-1.38434e-223
4.364e-224
1.48463e-223
9.28716e-224
9.85176e-224
2.43325e-224
-6.59171e-226
-3.21413e-224
-3.84901e-223
2.70307e-224
1.94662e-223
2.07602e-223
4.75662e-224
-9.22077e-224
-8.56547e-224
-5.91691e-224
-2.1438e-224
4.33199e-224
3.11816e-224
8.23842e-225
-5.62499e-225
-1.10165e-224
-3.88146e-225
1.53278e-225
3.08459e-225
1.61726e-225
7.44828e-226
-4.25254e-226
-1.50099e-225
-9.86912e-226
3.74943e-226
-3.63884e-239
7.70414e-239
-6.82902e-238
5.91931e-237
-3.77446e-236
4.7922e-237
7.40785e-235
-6.01524e-234
4.6385e-233
-3.67227e-232
1.7758e-231
-1.24275e-230
8.69787e-230
-5.88994e-229
3.08006e-228
-1.94064e-227
8.99734e-227
-5.26965e-226
1.46828e-225
-2.81137e-225
1.45911e-224
-7.25735e-224
3.30689e-223
1.0695e-222
4.64601e-224
6.30832e-223
-4.08976e-222
1.602e-221
1.52661e-221
-5.44246e-221
1.81798e-220
-5.18559e-220
2.80059e-219
1.14122e-218
-6.00852e-218
1.99739e-217
4.19979e-217
-3.15903e-216
9.74388e-216
-3.88954e-215
8.79895e-215
2.42963e-215
-2.7233e-214
7.30879e-215
8.12161e-214
8.6188e-214
3.41319e-212
-1.9826e-211
-2.76775e-211
1.53752e-210
6.54397e-211
-5.4628e-210
1.88466e-210
1.14674e-211
-1.0023e-209
1.79587e-209
4.28719e-209
7.58788e-210
-5.55899e-209
-7.88172e-209
-3.33436e-209
5.55753e-209
9.53936e-209
6.60532e-209
1.19424e-209
-7.47251e-209
-6.78316e-209
-5.7217e-209
1.5089e-209
4.33792e-209
1.44302e-209
2.05867e-209
3.86498e-209
-1.21871e-209
-1.75293e-209
-9.65817e-209
-6.39627e-209
1.67468e-208
5.74462e-209
-1.91326e-209
-6.10524e-210
-3.66509e-209
-3.4017e-209
-2.2208e-209
1.44804e-209
1.69864e-209
9.03489e-211
4.44819e-210
-2.14262e-210
-2.29833e-210
7.70893e-211
3.46805e-211
4.56596e-211
-5.25394e-213
2.63101e-211
-7.65221e-211
-7.74242e-211
-1.97571e-211
4.20735e-211
2.37728e-211
-2.09703e-224
6.95997e-224
-4.20195e-223
2.76942e-222
-2.27309e-221
1.50054e-220
-9.07928e-220
2.76747e-219
-3.72697e-219
-2.10646e-217
2.42896e-216
-1.12672e-215
3.44504e-215
-1.77771e-214
1.47917e-213
-6.64358e-213
2.25831e-212
-1.15203e-211
1.12782e-210
-3.22566e-210
1.33579e-209
-5.27037e-209
2.75622e-208
-8.29622e-208
2.55833e-207
-1.35138e-207
-9.84253e-207
1.7064e-206
-3.57753e-205
2.05076e-205
5.27411e-205
-4.90902e-205
2.8885e-204
-2.0184e-204
3.83943e-203
-1.95697e-202
2.42071e-202
-7.16121e-202
6.42275e-202
2.35362e-201
7.62354e-202
5.64775e-200
-1.493e-199
3.22137e-199
-7.1862e-199
7.58788e-198
-2.3511e-197
3.82406e-199
3.61179e-196
-1.08718e-195
-2.96725e-196
3.01421e-195
1.69193e-195
-3.79498e-195
-5.96971e-195
-1.26305e-195
6.06027e-195
8.68764e-195
3.16903e-195
-4.41491e-195
-1.29051e-194
-1.11798e-194
-9.21009e-195
7.07767e-195
2.5537e-194
-2.15248e-194
3.59632e-194
-1.40764e-194
7.05851e-195
5.07103e-195
-2.88089e-194
-6.62261e-195
3.12249e-194
3.03203e-194
2.4379e-194
-1.13526e-193
6.41492e-194
4.5463e-194
-3.47474e-194
-3.12008e-194
8.35575e-194
-3.14166e-194
-5.73044e-194
-1.93791e-194
-7.11205e-195
1.53018e-194
1.50273e-194
4.78624e-195
1.79146e-195
-5.83477e-195
3.8411e-196
1.25546e-196
-2.46824e-196
4.97686e-196
1.48235e-195
6.31448e-196
-3.12197e-196
-4.10025e-196
-2.11595e-196
3.48868e-198
-5.26638e-210
2.22382e-209
-1.59528e-208
1.30734e-207
-7.76835e-207
6.0587e-206
-4.71044e-205
3.56821e-204
-2.63755e-203
1.90028e-202
-1.33297e-201
9.0919e-201
9.40008e-201
-7.74312e-200
-5.79839e-199
3.65746e-198
-2.52028e-198
1.12297e-196
-6.08222e-196
4.70929e-196
-2.12558e-195
-1.20864e-194
4.50564e-194
-5.37732e-195
-6.53131e-193
-8.02983e-193
1.0675e-191
-7.31529e-191
4.1606e-190
-5.68175e-191
4.51484e-191
-9.18929e-190
1.39175e-189
-3.06873e-189
2.85446e-188
-7.64062e-188
1.00091e-187
3.2231e-187
-1.18329e-186
5.31244e-186
-7.41761e-186
5.81044e-185
-1.2622e-184
1.36199e-185
1.49381e-183
-6.56303e-183
3.38036e-183
2.46433e-182
-1.79963e-181
2.92914e-181
4.27886e-181
-1.01904e-180
-4.5268e-181
-1.65419e-181
1.19259e-180
3.08115e-180
-1.43817e-180
-4.85414e-180
-5.94373e-180
9.15569e-180
1.84862e-181
-9.20439e-180
1.53308e-179
2.90219e-179
1.22362e-179
-2.52181e-179
-4.15723e-179
-3.27456e-179
5.72787e-180
3.06328e-179
2.74363e-179
1.89942e-179
-3.04177e-180
-1.37068e-179
-2.86992e-179
5.56341e-179
-9.03319e-179
-2.41352e-179
6.11539e-179
4.79072e-179
-4.70431e-179
4.40019e-179
-4.28062e-179
-2.53915e-180
7.60503e-180
8.34223e-180
2.71126e-180
-2.13628e-180
-7.19849e-180
2.6612e-180
3.69841e-180
-8.94493e-182
-1.98018e-180
-1.05527e-180
-2.08809e-181
1.44119e-181
1.46578e-181
4.59222e-182
2.21288e-182
-2.53939e-182
1.99534e-195
-8.04906e-195
6.9424e-194
-6.43014e-193
4.13739e-192
-4.35657e-191
3.34854e-190
-2.47331e-189
2.41428e-188
-1.25328e-187
1.16491e-186
-7.8378e-186
2.75218e-185
-2.34173e-184
1.06503e-183
-4.10183e-183
2.26587e-182
-7.33643e-182
5.71703e-181
-1.89681e-180
4.86176e-180
-1.97283e-179
3.07371e-179
-1.71892e-178
-5.28138e-179
1.29015e-177
-8.71182e-177
2.1899e-176
-2.0746e-175
4.58726e-175
-4.00682e-175
-7.85835e-175
-5.24438e-175
6.35119e-174
2.84229e-174
-1.98382e-173
-4.52022e-173
2.99099e-172
-1.27838e-171
2.62336e-171
5.32441e-171
-1.69802e-170
1.73059e-170
2.22802e-170
-5.09479e-169
8.55486e-169
1.03982e-168
-9.75266e-168
4.08484e-167
-4.92331e-167
-2.75668e-166
1.47192e-166
4.5659e-166
4.85925e-166
-7.45352e-166
-2.25181e-165
-1.29847e-166
3.25196e-165
5.03681e-165
2.91315e-166
-6.85422e-165
-8.73447e-165
-2.728e-165
5.96727e-165
1.026e-164
7.1017e-165
-5.07313e-166
-6.5437e-165
-7.7347e-165
-4.13945e-165
1.15781e-164
-7.88997e-164
8.09009e-164
1.41406e-164
1.1907e-163
-4.96742e-165
-7.10502e-164
-6.13481e-164
-8.20255e-164
-1.70457e-164
6.47691e-164
7.24114e-164
-9.39633e-165
-9.36078e-165
-2.13135e-164
-1.42992e-164
2.21136e-165
9.33936e-165
5.76754e-165
7.76313e-166
-2.15792e-165
-1.66219e-165
-1.5605e-166
1.06191e-166
2.73816e-166
1.03839e-166
-3.5857e-167
-1.2331e-167
-3.08323e-167
-1.64349e-167
-2.20237e-181
1.04153e-180
-1.83173e-179
2.25989e-178
-2.68135e-177
2.51761e-176
-1.88236e-175
1.41854e-174
-1.04192e-173
7.28819e-173
-4.43832e-172
2.57082e-171
-1.52289e-170
8.22523e-170
-4.4665e-169
2.323e-168
-1.06954e-167
4.63441e-167
-1.87879e-166
7.73934e-166
-2.88532e-165
8.19376e-165
-2.07519e-164
1.57091e-164
1.4301e-163
-1.2765e-162
6.56618e-162
-2.65862e-161
8.61497e-161
-2.28241e-160
4.73151e-160
-3.78349e-160
-1.47056e-159
8.07815e-159
-1.71203e-158
2.24938e-158
3.50611e-158
-2.77821e-157
7.21068e-157
-3.06592e-157
-2.99283e-156
1.17661e-155
-1.98269e-155
-4.00574e-155
2.97605e-154
-6.38448e-154
-4.77566e-154
8.80498e-153
-2.15613e-152
-2.19692e-152
1.43871e-151
1.45343e-152
-2.3702e-151
-2.56272e-151
1.04167e-151
6.26175e-151
6.2342e-151
-2.75307e-151
-1.17685e-150
-1.3922e-150
-3.97497e-151
2.07507e-150
1.48231e-150
1.93914e-150
2.74826e-151
1.88224e-150
9.91166e-150
-5.47203e-150
-5.27624e-149
-4.15617e-149
1.49595e-149
7.65377e-149
1.2732e-148
2.07449e-149
-7.93222e-149
-1.15167e-148
-6.77418e-149
3.59574e-151
6.62304e-149
6.70243e-149
2.32182e-149
-1.48278e-149
-2.56115e-149
-1.50601e-149
-2.49006e-150
4.792e-150
4.41979e-150
1.10243e-150
-8.42331e-151
-9.25863e-151
-1.39994e-150
7.48871e-151
5.58457e-151
1.89614e-151
-1.47636e-151
-1.903e-151
-9.91676e-152
3.03211e-152
6.21994e-152
2.04359e-152
-2.01649e-165
9.95108e-166
-8.36855e-165
6.63191e-164
-5.00301e-163
1.00649e-162
-6.33182e-162
4.4952e-161
-3.04258e-160
-4.71303e-159
3.21835e-158
-1.81156e-157
1.09701e-156
-7.02038e-156
3.96107e-155
-1.95302e-154
9.08538e-154
-3.9586e-153
1.59209e-152
-6.69841e-152
2.50881e-151
-6.60532e-151
1.30141e-150
2.52019e-150
-3.92575e-149
2.77222e-148
-1.22353e-147
5.32716e-147
-1.54851e-146
3.25625e-146
-7.51145e-146
-1.91624e-146
3.84679e-145
-1.62763e-144
4.04613e-144
-9.62056e-145
-1.18628e-143
7.58628e-143
-1.27467e-142
1.88807e-143
5.4573e-142
-1.538e-141
3.25622e-141
6.30443e-141
-2.40774e-140
2.81362e-140
6.2753e-140
-8.04206e-139
1.39173e-138
5.02393e-138
-1.28542e-137
-1.30747e-137
2.31078e-137
1.7736e-137
2.21338e-137
-5.54251e-138
-5.31166e-137
-1.384e-137
-5.67699e-137
6.12465e-138
1.63637e-136
-6.79955e-137
6.53223e-136
2.75684e-136
1.83879e-136
-2.06095e-135
-8.46896e-135
-7.53189e-135
1.15186e-134
1.94856e-134
2.03163e-134
-7.95176e-136
-2.6866e-134
-2.67882e-134
-1.53586e-134
6.12685e-135
1.93859e-134
1.72752e-134
5.41433e-135
-2.49347e-135
-6.14591e-135
-4.62879e-135
-1.11398e-135
6.16613e-136
8.58208e-136
4.24041e-136
-4.37219e-137
-1.84835e-136
-1.10293e-136
-1.30372e-136
6.23289e-136
-1.00978e-136
-2.23809e-136
-1.3844e-136
-3.57704e-137
1.59011e-137
2.24478e-137
1.14313e-137
1.55676e-138
-2.01112e-138
-7.40448e-151
2.51146e-150
1.03115e-149
-8.8977e-149
-6.05249e-148
4.76088e-147
-3.3077e-146
2.26985e-145
-1.51389e-144
-3.07985e-145
4.21041e-144
-2.23506e-143
1.33543e-142
-7.54562e-142
4.09548e-141
-2.12178e-140
1.04271e-139
-4.81565e-139
2.05961e-138
-7.94593e-138
2.6125e-137
-6.12753e-137
-5.27486e-138
1.23066e-135
-9.85098e-135
5.56122e-134
-2.57933e-133
1.01513e-132
-3.3476e-132
8.63717e-132
-1.30619e-131
-2.40456e-131
1.7468e-130
-7.60687e-130
1.28354e-129
5.62899e-130
-8.73781e-129
3.31073e-128
-3.40874e-128
-4.49276e-128
2.84887e-127
-4.40323e-127
3.85182e-127
1.77553e-126
-1.99585e-126
9.71601e-126
-1.70346e-125
9.28482e-125
-3.97262e-125
-1.71054e-123
1.66271e-123
5.8788e-123
-1.27061e-123
-1.20246e-122
-1.01832e-122
1.29929e-122
1.36751e-122
5.40463e-122
1.96418e-122
-2.71106e-122
-2.61865e-121
-2.28697e-121
-1.78727e-122
1.04134e-120
1.57181e-120
2.4234e-121
-3.49362e-120
-6.10513e-120
-2.92938e-120
3.82072e-120
8.51185e-120
7.24709e-120
1.90342e-120
-3.51107e-120
-5.82914e-120
-4.60972e-120
-1.65579e-120
8.41507e-121
1.7904e-120
1.42301e-120
5.89067e-121
-2.86816e-122
-2.30273e-121
-1.61519e-121
-3.64917e-122
3.00345e-122
3.27989e-122
1.04549e-122
3.40747e-123
-6.77671e-122
3.66597e-121
-1.63455e-120
-2.28225e-121
-8.97089e-121
1.30389e-120
1.01208e-120
9.56043e-121
-2.36537e-121
-4.12201e-121
-1.59404e-121
-2.85192e-135
6.89587e-135
-3.88689e-134
2.82081e-133
-1.73764e-132
1.12396e-131
-7.11199e-131
3.93699e-130
-2.27912e-129
1.26927e-128
-7.73973e-128
3.42312e-127
-1.24724e-126
6.84396e-126
-1.62734e-125
8.16242e-125
-2.52023e-124
1.1626e-123
-5.09369e-123
1.61778e-122
-4.46294e-122
1.0046e-121
-3.16926e-121
6.85502e-121
-1.1605e-120
1.19821e-119
-8.00451e-119
2.84329e-118
-8.22986e-118
1.41358e-117
-9.31276e-118
-8.10732e-117
4.07281e-116
-1.03729e-115
1.09128e-115
4.15247e-115
-3.39765e-114
1.0173e-113
-7.02193e-114
-4.47955e-113
2.00069e-112
-2.74621e-112
-5.68958e-112
2.48368e-111
-4.06538e-111
-5.30345e-111
3.99963e-110
-4.94173e-110
-1.2485e-109
3.79189e-109
9.04572e-110
-1.25688e-108
-4.60717e-109
3.34223e-108
5.51712e-108
-7.97616e-108
-2.41379e-107
-4.66505e-108
5.6167e-107
8.27651e-107
-1.35695e-107
-1.93562e-106
-2.33507e-106
2.84311e-107
3.52693e-106
6.65139e-106
1.36118e-107
-9.49854e-106
-1.25088e-105
-6.86722e-106
-2.6437e-107
-4.92627e-105
2.80038e-105
8.29823e-105
7.93758e-105
1.59961e-105
-7.00933e-105
-1.27538e-104
-5.49287e-105
3.22139e-105
7.34973e-105
1.3851e-105
-3.27194e-105
-9.8282e-106
2.37057e-105
3.88705e-105
6.42607e-105
-8.59222e-106
-5.77558e-105
-5.06326e-105
-1.26203e-105
6.51548e-106
2.22477e-105
2.18781e-105
5.9578e-106
-1.90091e-106
-7.69933e-106
-5.14076e-106
-1.48864e-106
1.28359e-106
6.06237e-121
-1.90192e-120
9.83603e-120
-6.92182e-119
2.06437e-118
-1.3388e-117
9.06572e-117
-5.89983e-116
3.73285e-115
-4.35498e-114
2.62505e-113
-7.80509e-113
4.23991e-112
-2.28383e-111
6.95428e-111
-3.39809e-110
5.3645e-110
-2.38638e-109
9.90213e-109
-3.64994e-108
1.18867e-107
-3.07258e-107
3.96449e-107
1.88662e-106
-1.95577e-105
6.43575e-105
-1.47754e-104
-1.99818e-104
4.08889e-104
-5.5355e-104
1.1567e-104
6.10845e-103
-2.57437e-102
5.63775e-102
1.57775e-101
-2.53514e-101
2.96663e-100
-7.19731e-100
-3.54969e-100
6.02603e-99
-2.20744e-98
9.84828e-99
1.03545e-97
-2.61465e-97
-1.69326e-99
1.2014e-96
-3.62078e-96
7.97432e-97
3.15086e-95
-6.95029e-95
-1.25886e-94
3.80633e-94
3.36089e-94
-6.65945e-94
-1.40687e-93
3.18833e-95
3.21666e-93
3.87676e-93
-1.73032e-93
-9.83603e-93
-9.86593e-93
4.86925e-93
2.34933e-92
1.76396e-92
2.8067e-92
-1.3413e-91
3.48482e-92
-7.35318e-92
1.07108e-91
-6.7149e-91
9.11096e-91
2.94145e-90
1.33699e-90
-1.18997e-90
-2.6403e-90
-3.15347e-90
-1.30867e-90
7.40427e-91
2.07372e-90
-1.06603e-91
-8.84917e-91
1.35948e-90
2.79566e-90
1.3514e-90
2.1353e-90
-7.87643e-91
-4.86969e-90
-3.43977e-90
-4.78781e-91
6.37608e-91
2.05317e-90
1.41073e-90
4.12099e-91
-2.30358e-92
-3.66828e-91
-2.48158e-91
-6.79546e-92
2.72103e-92
4.17185e-92
1.53245e-92
-3.95456e-106
1.18192e-105
-1.11365e-104
6.39222e-104
-3.82286e-103
2.55499e-102
-1.20518e-101
7.53262e-101
-4.64868e-100
3.22675e-99
-1.62363e-98
7.6845e-98
-2.76144e-97
1.06499e-96
-3.67705e-96
2.38973e-95
-1.06995e-94
3.51933e-94
-6.60785e-94
2.50835e-93
-7.91522e-93
1.3316e-92
-7.08702e-93
-1.03348e-91
5.1015e-91
-2.45931e-90
8.51842e-90
-2.3443e-89
4.41466e-89
-8.51511e-89
-6.03038e-89
8.67142e-88
-2.54386e-87
3.14405e-87
5.54832e-87
-5.9579e-86
1.74015e-85
-1.38438e-85
-4.01535e-85
1.64654e-84
-1.43199e-84
-1.7942e-84
2.55224e-83
-4.20213e-83
-8.56486e-83
2.34212e-82
1.37197e-82
-8.88712e-83
-5.4273e-81
1.43427e-82
3.4122e-80
-2.04966e-80
-3.33847e-80
9.90128e-80
-1.78452e-79
-4.02998e-79
7.54407e-79
2.17919e-78
-7.63615e-79
-9.47849e-78
-8.60904e-78
1.68447e-77
5.58112e-77
5.02583e-77
-1.01263e-76
-2.9542e-76
-2.47511e-76
1.31223e-76
5.35675e-76
8.96521e-76
1.99461e-76
-5.36486e-76
-1.4626e-75
-1.324e-75
-3.43277e-76
1.52639e-76
1.03107e-75
2.51612e-76
1.16415e-75
1.80966e-75
1.96479e-75
1.15223e-75
-3.80367e-76
-2.95036e-75
-3.22866e-75
-2.55053e-75
-1.58553e-76
1.41229e-75
1.79769e-75
1.25674e-75
5.26834e-76
-2.31414e-76
-3.26839e-76
-2.54772e-76
-8.63756e-77
9.64593e-78
4.99523e-77
3.12224e-77
8.20218e-78
-3.8803e-78
-1.43605e-91
4.22034e-91
-3.40903e-90
2.38732e-89
-1.6847e-88
1.04258e-87
-6.4035e-87
3.69756e-86
-2.05681e-85
1.10172e-84
-5.91189e-84
3.05759e-83
-1.58837e-82
7.22224e-82
-2.93735e-81
1.18308e-80
-4.43832e-80
1.67088e-79
-5.81038e-79
1.43712e-78
-3.16206e-78
5.72214e-78
-6.95448e-78
-1.53842e-77
1.4699e-76
-3.05363e-76
1.36013e-75
-3.0069e-75
6.33313e-75
-5.50364e-75
-1.71334e-74
8.65811e-74
-2.28476e-73
9.78033e-74
1.82041e-72
-7.4603e-72
1.43634e-71
-2.50968e-72
-9.9641e-71
3.48855e-70
-2.15985e-70
-1.88851e-69
5.62805e-69
-1.23404e-69
-3.42822e-68
5.99747e-68
1.4002e-67
-6.32345e-67
-1.20222e-67
4.2717e-66
-2.60335e-66
-1.69793e-65
2.53266e-66
7.01028e-65
-4.76142e-66
-2.18969e-64
-4.7214e-65
5.72439e-64
7.83337e-64
-1.13242e-63
-3.82154e-63
-1.04845e-63
8.15724e-63
1.43959e-62
9.09066e-63
-4.19322e-62
-9.24951e-62
-3.42752e-62
6.93128e-62
1.8846e-61
2.888e-61
2.51993e-61
-4.54424e-62
1.56245e-62
-3.02688e-61
-6.76672e-61
-1.1262e-60
-1.05459e-60
-4.57146e-61
2.90905e-61
1.2718e-60
2.10263e-60
1.5371e-60
4.77713e-61
-3.53704e-61
-9.6391e-61
-9.46012e-61
-6.05961e-61
-1.99036e-61
7.36343e-62
1.65693e-61
1.24901e-61
5.18068e-62
2.38107e-64
-1.90036e-62
-1.5848e-62
-6.75127e-63
2.90189e-64
2.52148e-63
1.16644e-63
-8.89079e-78
2.34235e-77
-1.783e-76
1.19438e-75
1.37339e-74
-9.24952e-74
5.65306e-73
-3.39791e-72
1.97551e-71
-1.11096e-70
6.03162e-70
-3.15509e-69
1.58636e-68
-7.64533e-68
3.51993e-67
-1.54179e-66
6.39141e-66
-2.4904e-65
9.03482e-65
-2.25098e-64
7.01894e-64
-1.7883e-63
3.53318e-63
-3.15659e-63
-1.78771e-62
-3.09089e-63
-9.29596e-62
1.25686e-61
-3.19778e-61
1.87788e-61
1.00129e-60
-4.5697e-60
7.46585e-60
1.53787e-59
-1.37033e-58
4.29139e-58
-5.61623e-58
-1.0977e-57
6.9433e-57
-1.07914e-56
-2.44425e-56
1.47525e-55
-1.77424e-55
-7.01662e-55
2.63367e-54
1.71472e-54
-2.91636e-53
2.49119e-53
1.66711e-52
-5.28787e-52
-3.5801e-52
1.23636e-51
3.30717e-51
-7.57223e-51
-4.74426e-51
1.56422e-50
1.97996e-50
-2.61187e-50
-9.08043e-50
-5.46683e-50
2.51402e-49
9.94934e-49
-9.27389e-49
-3.89577e-48
2.07377e-49
8.05329e-48
2.10861e-47
-1.18067e-48
2.94948e-48
-2.12124e-47
-4.91505e-47
-8.52033e-47
-7.77958e-47
-1.68621e-46
-9.30875e-47
1.17483e-47
7.82817e-47
2.77521e-46
3.48244e-46
3.09401e-46
2.40649e-46
-1.40071e-46
-2.44522e-46
-2.25245e-46
-1.54085e-46
-7.56916e-47
-1.62973e-47
1.50675e-47
2.25821e-47
1.66876e-47
7.45593e-48
1.08537e-48
-2.34929e-48
-2.21042e-48
-9.99329e-49
-1.11574e-49
4.10684e-49