/*--------------------------------*- C++ -*----------------------------------*\
  =========                 |
  \\      /  F ield         | OpenFOAM: The Open Source CFD Toolbox
   \\    /   O peration     | Website:  https://openfoam.org
    \\  /    A nd           | Version:  13
     \\/     M anipulation  |
\*---------------------------------------------------------------------------*/
FoamFile
{
    format      ascii;
    class       volScalarField;
    location    "4.1";
    object      T;
}
// * * * * * * * * * * * * * * * * * * * * * * * * * * * * * * * * * * * * * //

dimensions      [0 0 0 1 0 0 0];

internalField   nonuniform List<scalar> 
10000
(
4.39208e-72
-1.15314e-72
1.72042e-71
-6.01966e-71
2.12244e-70
-5.86164e-70
7.80936e-70
4.85981e-69
-5.51403e-68
3.60335e-67
-1.90546e-66
8.79598e-66
-3.6361e-65
1.35545e-64
-4.53804e-64
1.3436e-63
-3.39654e-63
6.71144e-63
-7.17135e-63
-1.45973e-62
1.1217e-61
-3.67153e-61
7.1742e-61
-3.2783e-61
-3.49794e-60
1.45839e-59
-2.72744e-59
-3.81868e-60
1.84386e-58
-5.27161e-58
3.56768e-58
2.2777e-57
-8.03072e-57
5.75845e-57
3.49289e-56
-1.09584e-55
1.5676e-56
6.1054e-55
-1.15875e-54
-1.63478e-54
9.01242e-54
-2.89456e-54
-4.68968e-53
6.65295e-53
1.94924e-52
-5.20134e-52
-6.99739e-52
3.16252e-51
2.4032e-51
-1.72767e-50
-9.91698e-51
8.91757e-50
6.0591e-50
-4.35785e-49
-4.65082e-49
1.92411e-48
3.48971e-48
-6.68013e-48
-2.26387e-47
8.74552e-48
1.15974e-46
1.06051e-46
-3.82604e-46
-1.05632e-45
-2.48854e-47
4.58468e-45
8.7065e-45
-2.09674e-45
-4.07538e-44
-8.22026e-44
-2.88446e-44
2.52344e-43
7.57449e-43
1.07653e-42
2.24476e-43
-3.15944e-42
-1.01317e-41
-2.05361e-41
-3.24407e-41
-4.24682e-41
-4.70864e-41
-4.42699e-41
-3.45912e-41
-2.10599e-41
-7.76625e-42
1.90333e-42
6.50913e-42
6.70289e-42
4.4065e-42
1.65179e-42
-2.64146e-43
-1.00015e-42
-8.81864e-43
-4.37683e-43
-5.69473e-44
1.18389e-43
1.26642e-43
6.61415e-44
9.91393e-45
-1.48123e-44
-5.56937e-71
1.5854e-71
-2.24836e-70
8.06163e-70
-2.93837e-69
8.78039e-69
-1.68505e-68
-2.76917e-68
5.42234e-67
-3.88241e-66
2.13276e-65
-1.0055e-64
4.21323e-64
-1.58579e-63
5.34885e-63
-1.59368e-62
4.05357e-62
-8.07331e-62
8.82449e-62
1.67524e-61
-1.32946e-60
4.38923e-60
-8.64744e-60
4.16623e-60
4.14192e-59
-1.7456e-58
3.29109e-58
3.79193e-59
-2.20061e-57
6.33786e-57
-4.37809e-57
-2.71646e-56
9.65131e-56
-7.03087e-56
-4.17508e-55
1.31831e-54
-2.02245e-55
-7.32117e-54
1.39689e-53
1.95091e-53
-1.08341e-52
3.54503e-53
5.63088e-52
-8.01961e-52
-2.33876e-51
6.25818e-51
8.3926e-51
-3.80261e-50
-2.88341e-50
2.07675e-49
1.19191e-49
-1.07171e-48
-7.29536e-49
5.23541e-48
5.60142e-48
-2.30977e-47
-4.20041e-47
8.00317e-47
2.722e-46
-1.03386e-46
-1.39211e-45
-1.28189e-45
4.57654e-45
1.26965e-44
4.17513e-46
-5.48658e-44
-1.04734e-43
2.38084e-44
4.86904e-43
9.87245e-43
3.58331e-43
-2.99703e-42
-9.05136e-42
-1.29364e-41
-2.91344e-42
3.72575e-41
1.2021e-40
2.44121e-40
3.85981e-40
5.05521e-40
5.60604e-40
5.27058e-40
4.11706e-40
2.50448e-40
9.20659e-41
-2.30646e-41
-7.78031e-41
-7.99591e-41
-5.24789e-41
-1.95983e-41
3.2317e-42
1.19703e-41
1.05248e-41
5.20851e-42
6.64317e-43
-1.42169e-42
-1.51357e-42
-7.8792e-43
-1.16136e-43
1.77753e-43
9.17361e-70
-2.75153e-70
3.77938e-69
-1.37661e-68
5.12094e-68
-1.59954e-67
3.56574e-67
7.02315e-68
-7.14646e-66
5.61402e-65
-3.19073e-64
1.53131e-63
-6.48798e-63
2.46087e-62
-8.34943e-62
2.49997e-61
-6.38895e-61
1.28016e-60
-1.42303e-60
-2.55948e-60
2.08423e-59
-6.92705e-59
1.3733e-58
-6.8738e-59
-6.48866e-58
2.75747e-57
-5.23085e-57
-5.04916e-58
3.46853e-56
-1.00456e-55
7.04622e-56
4.27926e-55
-1.52931e-54
1.12738e-54
6.58836e-54
-2.09053e-53
3.37167e-54
1.15812e-52
-2.21865e-52
-3.07472e-52
1.7171e-51
-5.69746e-52
-8.91626e-51
1.27368e-50
3.7013e-50
-9.92526e-50
-1.32782e-49
6.02782e-49
4.56313e-49
-3.29131e-48
-1.88871e-48
1.69822e-47
1.15761e-47
-8.2937e-47
-8.89028e-47
3.65685e-46
6.66364e-46
-1.26517e-45
-4.31475e-45
1.61762e-45
2.20392e-44
2.04012e-44
-7.22595e-44
-2.01207e-43
-8.0399e-45
8.66593e-43
1.66079e-42
-3.60537e-43
-7.68079e-42
-1.56357e-41
-5.81865e-42
4.70614e-41
1.42805e-40
2.04972e-40
4.87648e-41
-5.81791e-40
-1.88612e-39
-3.836e-39
-6.06933e-39
-7.95184e-39
-8.81963e-39
-8.29172e-39
-6.47553e-39
-3.93665e-39
-1.44358e-39
3.67772e-40
1.22775e-39
1.25984e-39
8.25812e-40
3.07505e-40
-5.18979e-41
-1.89083e-40
-1.65889e-40
-8.19122e-41
-1.02849e-41
2.25145e-41
2.38825e-41
1.24013e-41
1.80402e-42
-2.81349e-42
-1.47392e-68
4.63799e-69
-6.19003e-68
2.28728e-67
-8.66299e-67
2.80734e-66
-6.9527e-66
4.84674e-66
8.71862e-65
-7.81106e-64
4.62768e-63
-2.26701e-62
9.72487e-62
-3.71995e-61
1.27017e-60
-3.82319e-60
9.81974e-60
-1.98005e-59
2.23931e-59
3.8028e-59
-3.18534e-58
1.06615e-57
-2.12751e-57
1.1063e-57
9.90887e-57
-4.24821e-56
8.11054e-56
6.25662e-57
-5.3312e-55
1.55314e-54
-1.10664e-54
-6.57352e-54
2.36372e-53
-1.76396e-53
-1.0139e-52
3.23375e-52
-5.48101e-53
-1.78685e-51
3.4376e-51
4.7255e-51
-2.65457e-50
8.93578e-51
1.37711e-49
-1.97335e-49
-5.71332e-49
1.5355e-48
2.04899e-48
-9.32055e-48
-7.04338e-48
5.08804e-47
2.91925e-47
-2.62485e-46
-1.79179e-46
1.28156e-45
1.37643e-45
-5.64715e-45
-1.03121e-44
1.95068e-44
6.67156e-44
-2.4671e-44
-3.40327e-43
-3.16757e-43
1.1127e-42
3.11028e-42
1.47225e-43
-1.33494e-41
-2.56895e-41
5.30287e-42
1.18161e-40
2.41546e-40
9.22054e-41
-7.20484e-40
-2.19724e-39
-3.16793e-39
-7.95698e-40
8.85391e-39
2.88508e-38
5.87699e-38
9.30544e-38
1.21963e-37
1.35294e-37
1.27194e-37
9.93097e-38
6.03318e-38
2.2066e-38
-5.72154e-39
-1.88945e-38
-1.93568e-38
-1.26712e-38
-4.70381e-39
8.13285e-40
2.91295e-39
2.5498e-39
1.25606e-39
1.55067e-40
-3.47782e-40
-3.67506e-40
-1.90328e-40
-2.7299e-41
4.34362e-41
2.31017e-67
-7.5952e-68
9.87861e-67
-3.69825e-66
1.42308e-65
-4.75615e-65
1.27327e-64
-1.65577e-64
-9.52096e-64
1.04299e-62
-6.50529e-62
3.26337e-61
-1.4194e-60
5.47986e-60
-1.88391e-59
5.70234e-59
-1.47238e-58
2.98847e-58
-3.43944e-58
-5.49618e-58
4.74772e-57
-1.60089e-56
3.21632e-56
-1.737e-56
-1.47567e-55
6.38551e-55
-1.22722e-54
-7.01817e-56
7.99381e-54
-2.34314e-53
1.69647e-53
9.85059e-53
-3.5649e-52
2.69393e-52
1.52224e-51
-4.88112e-51
8.68849e-52
2.68993e-50
-5.19769e-50
-7.08486e-50
4.00452e-49
-1.36801e-49
-2.07536e-48
2.98361e-48
8.60504e-48
-2.31807e-47
-3.08505e-47
1.40632e-46
1.06077e-46
-7.67524e-46
-4.40272e-46
3.95887e-45
2.70633e-45
-1.93233e-44
-2.07954e-44
8.50932e-44
1.55723e-43
-2.93457e-43
-1.00661e-42
3.66925e-43
5.1279e-42
4.79967e-42
-1.67169e-41
-4.69155e-41
-2.57896e-42
2.00635e-40
3.8776e-40
-7.57643e-41
-1.77342e-39
-3.64109e-39
-1.42615e-39
1.07584e-38
3.29828e-38
4.77765e-38
1.26575e-38
-1.31371e-37
-4.30416e-37
-8.78235e-37
-1.39165e-36
-1.82471e-36
-2.02451e-36
-1.90325e-36
-1.48563e-36
-9.01891e-37
-3.2895e-37
8.6874e-38
2.83687e-37
2.90134e-37
1.89658e-37
7.0176e-38
-1.24402e-38
-4.37837e-38
-3.82338e-38
-1.87877e-38
-2.27777e-39
5.24202e-39
5.5173e-39
2.84943e-39
4.0259e-40
-6.54328e-40
-3.53029e-66
1.20837e-66
-1.53545e-65
5.81729e-65
-2.27026e-64
7.78929e-64
-2.21437e-63
3.84178e-63
8.48449e-63
-1.32858e-61
8.84665e-61
-4.56285e-60
2.01569e-59
-7.86115e-59
2.72255e-58
-8.28998e-58
2.15246e-57
-4.39877e-57
5.15338e-57
7.71958e-57
-6.89711e-56
2.34385e-55
-4.74224e-55
2.65918e-55
2.14182e-54
-9.35898e-54
1.8111e-53
6.6358e-55
-1.16863e-52
3.44742e-52
-2.53707e-52
-1.43915e-51
5.24327e-51
-4.0135e-51
-2.2284e-50
7.18539e-50
-1.34239e-50
-3.94882e-49
7.66497e-49
1.03563e-48
-5.89135e-48
2.04321e-48
3.05008e-47
-4.39975e-47
-1.26385e-46
3.41294e-46
4.52957e-46
-2.0694e-45
-1.55788e-45
1.12913e-44
6.47536e-45
-5.82301e-44
-3.98652e-44
2.84138e-43
3.06415e-43
-1.25042e-42
-2.29343e-42
4.30499e-42
1.48118e-41
-5.31838e-42
-7.5349e-41
-7.09361e-41
2.44893e-40
6.90152e-40
4.33949e-41
-2.94038e-39
-5.70814e-39
1.05014e-39
2.59522e-38
5.3526e-38
2.15184e-38
-1.56594e-37
-4.82751e-37
-7.02689e-37
-1.96199e-37
1.89924e-36
6.25887e-36
1.27934e-35
2.02892e-35
2.66139e-35
2.95333e-35
2.77638e-35
2.1666e-35
1.31429e-35
4.77961e-36
-1.28667e-36
-4.15309e-36
-4.23991e-36
-2.76748e-36
-1.02048e-36
1.85636e-37
6.41715e-37
5.58972e-37
2.73955e-37
3.25726e-38
-7.70532e-38
-8.07635e-38
-4.15891e-38
-5.78214e-39
9.61237e-39
5.25642e-65
-1.86737e-65
2.32315e-64
-8.89848e-64
3.51678e-63
-1.23421e-62
3.68063e-62
-7.5926e-62
-3.97549e-62
1.59957e-60
-1.16104e-59
6.18874e-59
-2.78244e-58
1.09732e-57
-3.83073e-57
1.17386e-56
-3.0658e-56
6.31005e-56
-7.52733e-56
-1.05242e-55
9.75868e-55
-3.34367e-54
6.81481e-54
-3.96676e-54
-3.02756e-53
1.33662e-52
-2.6051e-52
-4.02961e-54
1.66454e-51
-4.94317e-51
3.69895e-51
2.04848e-50
-7.5157e-50
5.82924e-50
3.17852e-49
-1.03088e-48
2.02025e-49
5.649e-48
-1.10171e-47
-1.4749e-47
8.44691e-47
-2.97521e-47
-4.36846e-46
6.32373e-46
1.80895e-45
-4.89738e-45
-6.48079e-45
2.96775e-44
2.22958e-44
-1.61889e-43
-9.28123e-44
8.34723e-43
5.72313e-43
-4.07185e-42
-4.40037e-42
1.7907e-41
3.29195e-41
-6.15427e-41
-2.12412e-40
7.50724e-41
1.07899e-39
1.02189e-39
-3.49579e-39
-9.89451e-39
-7.03214e-40
4.19908e-38
8.18952e-38
-1.40982e-38
-3.70052e-37
-7.66848e-37
-3.16522e-37
2.22023e-36
6.88472e-36
1.00724e-35
2.96174e-36
-2.67334e-35
-8.86485e-35
-1.81543e-34
-2.8816e-34
-3.78156e-34
-4.19715e-34
-3.94558e-34
-3.07815e-34
-1.86574e-34
-6.76396e-35
1.85762e-35
5.92426e-35
6.03678e-35
3.93419e-35
1.44541e-35
-2.70062e-36
-9.16487e-36
-7.96223e-36
-3.89159e-36
-4.53077e-37
1.1038e-36
1.15195e-36
5.91377e-37
8.08114e-38
-1.37614e-37
-7.62058e-64
2.8022e-64
-3.41946e-63
1.32304e-62
-5.28852e-62
1.89291e-61
-5.86985e-61
1.3613e-60
-6.28231e-61
-1.79226e-59
1.46598e-58
-8.1306e-58
3.7296e-57
-1.48912e-56
5.24363e-56
-1.61778e-55
4.25141e-55
-8.81547e-55
1.0711e-54
1.39079e-54
-1.34378e-53
4.64441e-53
-9.5381e-53
5.76203e-53
4.16469e-52
-1.85877e-51
3.64971e-51
-2.32057e-53
-2.30828e-50
6.9028e-50
-5.25393e-50
-2.83868e-49
1.04916e-48
-8.24807e-49
-4.41433e-48
1.4404e-47
-2.95971e-48
-7.86944e-47
1.54231e-46
2.04498e-46
-1.17948e-45
4.22092e-46
6.09307e-45
-8.85265e-45
-2.52136e-44
6.84427e-44
9.02954e-44
-4.14504e-43
-3.10728e-43
2.2605e-42
1.2955e-42
-1.16533e-41
-8.00191e-42
5.68279e-41
6.15461e-41
-2.4974e-40
-4.60203e-40
8.56741e-40
2.96666e-39
-1.03121e-39
-1.50472e-38
-1.43391e-38
4.85906e-38
1.38152e-37
1.09925e-38
-5.83916e-37
-1.14432e-36
1.82975e-37
5.13762e-36
1.06994e-35
4.53573e-36
-3.06403e-35
-9.56016e-35
-1.4061e-34
-4.35142e-35
3.66077e-34
1.22205e-33
2.50762e-33
3.98398e-33
5.23068e-33
5.80668e-33
5.45851e-33
4.25719e-33
2.57819e-33
9.31592e-34
-2.61253e-34
-8.22839e-34
-8.36818e-34
-5.44458e-34
-1.9926e-34
3.82762e-35
1.27454e-34
1.10425e-34
5.3814e-35
6.12441e-36
-1.53991e-35
-1.59981e-35
-8.18646e-36
-1.09809e-36
1.91861e-36
1.07495e-62
-4.08155e-63
4.8932e-62
-1.91098e-61
7.71753e-61
-2.81055e-60
9.00352e-60
-2.27338e-59
2.51862e-59
1.8144e-58
-1.77354e-57
1.03288e-56
-4.84877e-56
1.96276e-55
-6.97684e-55
2.16824e-54
-5.73544e-54
1.19851e-53
-1.48367e-53
-1.77889e-53
1.79938e-52
-6.27649e-52
1.29923e-51
-8.14429e-52
-5.57059e-51
2.51504e-50
-4.97649e-50
1.43691e-51
3.11405e-49
-9.38053e-49
7.26491e-49
3.82672e-48
-1.42524e-47
1.13612e-47
5.96457e-47
-1.95864e-46
4.21808e-47
1.06673e-45
-2.10139e-45
-2.75835e-45
1.60276e-44
-5.82996e-45
-8.27004e-44
1.20616e-43
3.41971e-43
-9.30881e-43
-1.22417e-42
5.63407e-42
4.21379e-42
-3.07171e-41
-1.75966e-41
1.58322e-40
1.0888e-40
-7.71816e-40
-8.37756e-40
3.3894e-39
6.26108e-39
-1.16055e-38
-4.03227e-38
1.37731e-38
2.04202e-37
1.95837e-37
-6.57154e-37
-1.8772e-36
-1.65916e-37
7.90063e-36
1.55612e-35
-2.29049e-36
-6.93971e-35
-1.45273e-34
-6.32738e-35
4.1126e-34
1.2916e-33
1.91025e-33
6.21813e-34
-4.87266e-33
-1.63831e-32
-3.36895e-32
-5.35767e-32
-7.03772e-32
-7.81436e-32
-7.34562e-32
-5.72716e-32
-3.46529e-32
-1.24772e-32
3.57649e-33
1.11194e-32
1.12849e-32
7.32948e-33
2.67142e-33
-5.28133e-34
-1.72463e-33
-1.48988e-33
-7.23842e-34
-8.03689e-35
2.09061e-34
2.16166e-34
1.10239e-34
1.44936e-35
-2.603e-35
-1.47418e-61
5.76752e-62
-6.8026e-61
2.67974e-60
-1.09238e-59
4.0397e-59
-1.33021e-58
3.58354e-58
-5.60709e-58
-1.54706e-57
2.04415e-56
-1.2662e-55
6.10639e-55
-2.51018e-54
9.015e-54
-2.82366e-53
7.52119e-53
-1.58444e-52
1.99905e-52
2.19824e-52
-2.34104e-51
8.24572e-51
-1.72098e-50
1.11928e-50
7.23884e-50
-3.30839e-49
6.59893e-49
-3.43911e-50
-4.08364e-48
1.23955e-47
-9.77187e-48
-5.0142e-47
1.88263e-46
-1.52227e-46
-7.83453e-46
2.58986e-45
-5.8437e-46
-1.4059e-44
2.78435e-44
3.61645e-44
-2.11781e-43
7.83351e-44
1.09143e-42
-1.59819e-42
-4.50967e-42
1.23118e-41
1.61362e-41
-7.44671e-41
-5.55585e-41
4.05881e-40
2.32397e-40
-2.09158e-39
-1.44061e-39
1.0193e-38
1.10891e-38
-4.47285e-38
-8.2834e-38
1.52852e-37
5.32941e-37
-1.78712e-37
-2.69456e-36
-2.60125e-36
8.64052e-36
2.48033e-35
2.41932e-36
-1.03929e-34
-2.05776e-34
2.75754e-35
9.11274e-34
1.91799e-33
8.58612e-34
-5.36415e-33
-1.69637e-32
-2.52352e-32
-8.63623e-33
6.2985e-32
2.13415e-31
4.39857e-31
7.00238e-31
9.20305e-31
1.02209e-30
9.60756e-31
7.4882e-31
4.52648e-31
1.62367e-31
-4.76219e-32
-1.46078e-31
-1.47927e-31
-9.5901e-32
-3.48006e-32
7.08872e-33
2.26883e-32
1.95403e-32
9.46261e-33
1.02273e-33
-2.75982e-33
-2.83948e-33
-1.44286e-33
-1.85631e-34
3.43384e-34
1.96388e-60
-7.90191e-61
9.1806e-60
-3.64569e-59
1.4989e-58
-5.61946e-58
1.89457e-57
-5.37154e-57
1.02311e-56
8.54068e-57
-2.22565e-55
1.49418e-54
-7.43874e-54
3.11143e-53
-1.13013e-52
3.56975e-52
-9.57885e-52
2.03507e-51
-2.61774e-51
-2.6189e-51
2.95651e-50
-1.05218e-49
2.21498e-49
-1.49444e-49
-9.13022e-49
4.22732e-48
-8.50247e-48
6.47251e-49
5.20086e-47
-1.59136e-46
1.27752e-46
6.38057e-46
-2.41604e-45
1.9824e-45
9.99514e-45
-3.32719e-44
7.86373e-45
1.80001e-43
-3.58477e-43
-4.60476e-43
2.71878e-42
-1.02312e-42
-1.39935e-41
2.05767e-41
5.77734e-41
-1.58213e-40
-2.06623e-40
9.56287e-40
7.11607e-40
-5.21068e-39
-2.98176e-39
2.68461e-38
1.85192e-38
-1.30786e-37
-1.42616e-37
5.73461e-37
1.06478e-36
-1.95569e-36
-6.84366e-36
2.25068e-36
3.45439e-35
3.35753e-35
-1.10356e-34
-3.18409e-34
-3.40873e-35
1.32803e-33
2.64386e-33
-3.1809e-34
-1.16227e-32
-2.46022e-32
-1.13242e-32
6.79289e-32
2.16405e-31
3.23894e-31
1.1649e-31
-7.89875e-31
-2.69886e-30
-5.57601e-30
-8.88671e-30
-1.16861e-29
-1.29817e-29
-1.22023e-29
-9.50719e-30
-5.74103e-30
-2.05104e-30
6.16239e-31
1.864e-30
1.88324e-30
1.21851e-30
4.40109e-31
-9.24793e-32
-2.89935e-31
-2.48905e-31
-1.20119e-31
-1.26055e-32
3.53958e-32
3.62283e-32
1.83392e-32
2.30453e-33
-4.40083e-33
-2.53921e-59
1.04895e-59
-1.20176e-58
4.80824e-58
-1.99244e-57
7.56224e-57
-2.6023e-56
7.68996e-56
-1.66693e-55
3.99319e-56
2.25795e-54
-1.69202e-53
8.7513e-53
-3.73344e-52
1.37307e-51
-4.37684e-51
1.1837e-50
-2.5372e-50
3.32856e-50
3.00028e-50
-3.62084e-49
1.30286e-48
-2.76741e-48
1.93685e-48
1.11662e-47
-5.24192e-47
1.06352e-46
-1.07357e-47
-6.42688e-46
1.98311e-45
-1.62186e-45
-7.87757e-45
3.00962e-44
-2.50693e-44
-1.23738e-43
4.14924e-43
-1.02701e-43
-2.23673e-42
4.48053e-42
5.6887e-42
-3.38797e-41
1.29775e-41
1.74146e-40
-2.57195e-40
-7.18363e-40
1.97362e-39
2.56786e-39
-1.19207e-38
-8.84593e-39
6.49344e-38
3.71327e-38
-3.3448e-37
-2.31091e-37
1.62891e-36
1.7805e-36
-7.13657e-36
-1.32866e-35
2.42862e-35
8.53076e-35
-2.74841e-35
-4.2985e-34
-4.20746e-34
1.36786e-33
3.96779e-33
4.64037e-34
-1.64693e-32
-3.29751e-32
3.49793e-33
1.43854e-31
3.0632e-31
1.45037e-31
-8.34372e-31
-2.67899e-30
-4.0354e-30
-1.52476e-30
9.59998e-30
3.31007e-29
6.85669e-29
1.09408e-28
1.43959e-28
1.5996e-28
1.50351e-28
1.17098e-28
7.06339e-29
2.51254e-29
-7.74286e-30
-2.30817e-29
-2.32629e-29
-1.50204e-29
-5.39806e-30
1.17163e-30
3.59576e-30
3.07645e-30
1.47922e-30
1.50275e-31
-4.40649e-31
-4.48553e-31
-2.26149e-31
-2.76977e-32
5.47451e-32
3.18336e-58
-1.3481e-58
1.5245e-57
-6.14247e-57
2.56378e-56
-9.83956e-56
3.44723e-55
-1.05418e-54
2.506e-54
-2.31881e-54
-2.08156e-53
1.83133e-52
-9.92418e-52
4.33085e-51
-1.61496e-50
5.19906e-50
-1.41787e-49
3.0675e-49
-4.10582e-49
-3.29458e-49
4.29573e-48
-1.56394e-47
3.35328e-47
-2.43435e-47
-1.32273e-46
6.3018e-46
-1.29021e-45
1.63372e-46
7.69819e-45
-2.3965e-44
1.99759e-44
9.42673e-44
-3.63552e-43
3.07564e-43
1.485e-42
-5.018e-42
1.30058e-42
2.69494e-41
-5.4314e-41
-6.81183e-41
4.09416e-40
-1.59717e-40
-2.10149e-39
3.11799e-39
8.661e-39
-2.38767e-38
-3.09424e-38
1.44108e-37
1.06618e-37
-7.84733e-37
-4.4839e-37
4.04132e-36
2.79643e-36
-1.9674e-35
-2.15576e-35
8.61235e-35
1.60787e-34
-2.92435e-34
-1.03124e-33
3.25085e-34
5.18687e-33
5.1141e-33
-1.64381e-32
-4.79491e-32
-6.10161e-33
1.98023e-31
3.98859e-31
-3.64032e-32
-1.72606e-30
-3.69856e-30
-1.80217e-30
9.93041e-30
3.21517e-29
4.87574e-29
1.93494e-29
-1.12947e-28
-3.93314e-28
-8.17029e-28
-1.30534e-27
-1.71868e-27
-1.91022e-27
-1.79542e-27
-1.39776e-27
-8.42143e-28
-2.98164e-28
9.43741e-29
2.77089e-28
2.7854e-28
1.7945e-28
6.41451e-29
-1.44013e-29
-4.32366e-29
-3.68596e-29
-1.76536e-29
-1.73018e-30
5.31967e-30
5.38405e-30
2.7029e-30
3.21858e-31
-6.60377e-31
-3.86571e-57
1.67592e-57
-1.87227e-56
7.59359e-56
-3.19071e-55
1.23701e-54
-4.403e-54
1.38587e-53
-3.53132e-53
4.94779e-53
1.64955e-52
-1.88412e-51
1.08247e-50
-4.84967e-50
1.83655e-49
-5.9764e-49
1.64449e-48
-3.59264e-48
4.90811e-48
3.4531e-48
-4.93137e-47
1.818e-46
-3.93648e-46
2.96421e-46
1.51593e-45
-7.33716e-45
1.5165e-44
-2.32351e-45
-8.92837e-44
2.8055e-43
-2.38456e-43
-1.09219e-42
4.2542e-42
-3.65703e-42
-1.7258e-41
5.87914e-41
-1.59549e-41
-3.14505e-40
6.37916e-40
7.89747e-40
-4.79291e-39
1.90535e-39
2.45652e-38
-3.6624e-38
-1.01145e-37
2.79849e-37
3.61137e-37
-1.68771e-36
-1.24465e-36
9.18729e-36
5.24463e-36
-4.73034e-35
-3.2782e-35
2.30196e-34
2.52868e-34
-1.00682e-33
-1.88506e-33
3.4108e-33
1.20768e-32
-3.72018e-33
-6.063e-32
-6.02316e-32
1.91323e-31
5.6135e-31
7.74571e-32
-2.30607e-30
-4.67405e-30
3.54511e-31
2.00566e-29
4.32612e-29
2.17035e-29
-1.14392e-28
-3.73683e-28
-5.70713e-28
-2.37837e-28
1.28478e-27
4.52268e-27
9.4235e-27
1.50763e-26
1.98639e-26
2.20841e-26
2.07561e-26
1.61518e-26
9.71917e-27
3.42378e-27
-1.11471e-27
-3.2214e-27
-3.22934e-27
-2.07559e-27
-7.37646e-28
1.71568e-28
5.03529e-28
4.27633e-28
2.03956e-28
1.92056e-29
-6.22129e-29
-6.25855e-29
-3.12763e-29
-3.61079e-30
7.71658e-30
4.54205e-56
-2.01338e-56
2.22375e-55
-9.07517e-55
3.83698e-54
-1.50135e-53
5.41989e-53
-1.74849e-52
4.70378e-52
-8.23485e-52
-9.4105e-52
1.82815e-50
-1.13269e-49
5.23374e-49
-2.01664e-48
6.64011e-48
-1.84468e-47
4.07154e-47
-5.67964e-47
-3.43477e-47
5.47094e-46
-2.04421e-45
4.47204e-45
-3.49304e-45
-1.67872e-44
8.26392e-44
-1.72508e-43
3.11855e-44
1.00149e-42
-3.17805e-42
2.75579e-42
1.22374e-41
-4.81703e-41
4.20971e-41
1.94e-40
-6.66554e-40
1.89406e-40
3.55105e-39
-7.25114e-39
-8.85478e-39
5.4295e-38
-2.20086e-38
-2.77846e-37
4.16353e-37
1.14285e-36
-3.17419e-36
-4.07786e-36
1.91272e-35
1.40572e-35
-1.04085e-34
-5.93529e-35
5.3579e-34
3.7187e-34
-2.60636e-33
-2.87037e-33
1.13894e-32
2.13872e-32
-3.84908e-32
-1.36864e-31
4.11385e-32
6.85774e-31
6.86604e-31
-2.15429e-30
-6.35957e-30
-9.48684e-31
2.59812e-29
5.30063e-29
-3.1683e-30
-2.2544e-28
-4.89655e-28
-2.53051e-28
1.27385e-27
4.20126e-27
6.46456e-27
2.82867e-27
-1.41105e-26
-5.02663e-26
-1.0508e-25
-1.68363e-25
-2.21992e-25
-2.46881e-25
-2.32026e-25
-1.80472e-25
-1.08449e-25
-3.79951e-26
1.27457e-26
3.62283e-26
3.6211e-26
2.32149e-26
8.19901e-27
-1.97892e-27
-5.67312e-27
-4.79859e-27
-2.27843e-27
-2.05136e-28
7.04039e-28
7.03743e-28
3.49981e-28
3.90434e-29
-8.72491e-29
-5.1574e-55
2.33495e-55
-2.55136e-54
1.04732e-53
-4.45374e-53
1.75749e-52
-6.42542e-52
2.11752e-51
-5.95078e-51
1.20114e-50
-2.6735e-52
-1.65243e-49
1.1334e-48
-5.43334e-48
2.13501e-47
-7.12124e-47
1.99878e-46
-4.45957e-46
6.35486e-46
3.21551e-46
-5.85784e-45
2.22062e-44
-4.9107e-44
3.97889e-44
1.79381e-43
-8.99302e-43
1.89689e-42
-3.97163e-43
-1.0851e-41
3.4794e-41
-3.07971e-41
-1.32433e-40
5.27144e-40
-4.68596e-40
-2.10677e-39
7.30425e-39
-2.17346e-39
-3.87444e-38
7.96753e-38
9.58922e-38
-5.94462e-37
2.45872e-37
3.03708e-36
-4.57559e-36
-1.24788e-35
3.48004e-35
4.44944e-35
-2.09522e-34
-1.53409e-34
1.13975e-33
6.4909e-34
-5.8656e-33
-4.07703e-33
2.85221e-32
3.14929e-32
-1.24521e-31
-2.34541e-31
4.19768e-31
1.49917e-30
-4.39006e-31
-7.49662e-30
-7.56663e-30
2.34387e-29
6.96376e-29
1.12015e-29
-2.82844e-28
-5.81039e-28
2.49844e-29
2.44818e-27
5.3566e-27
2.85318e-27
-1.36955e-26
-4.5635e-26
-7.07762e-26
-3.25157e-26
1.49404e-25
5.39271e-25
1.13136e-24
1.81561e-24
2.39585e-24
2.66536e-24
2.50489e-24
1.94733e-24
1.16848e-24
4.06946e-25
-1.40911e-25
-3.93638e-25
-3.92218e-25
-2.50768e-25
-8.79689e-26
2.20735e-26
6.17611e-26
5.20163e-26
2.45796e-26
2.10347e-27
-7.70041e-27
-7.64536e-27
-3.78244e-27
-4.06155e-28
9.53409e-28
5.652e-54
-2.61091e-54
2.8241e-53
-1.16571e-52
4.98402e-52
-1.98215e-51
7.33007e-51
-2.46105e-50
7.16926e-50
-1.59891e-49
1.19187e-49
1.3617e-48
-1.08012e-47
5.41449e-47
-2.17576e-46
7.36131e-46
-2.08917e-45
4.71464e-45
-6.8661e-45
-2.79619e-45
6.04445e-44
-2.32732e-43
5.20541e-43
-4.37561e-43
-1.8468e-42
9.44293e-42
-2.01363e-41
4.81427e-42
1.1341e-40
-3.67685e-40
3.32392e-40
1.38234e-39
-5.568e-39
5.03754e-39
2.20725e-38
-7.72628e-38
2.4079e-38
4.07955e-37
-8.45198e-37
-1.00163e-36
6.28246e-36
-2.65328e-36
-3.2041e-35
4.85478e-35
1.31498e-34
-3.68316e-34
-4.68504e-34
2.2155e-33
1.61556e-33
-1.20472e-32
-6.85058e-33
6.19846e-32
4.31446e-32
-3.01284e-31
-3.33545e-31
1.31408e-30
2.4829e-30
-4.41824e-30
-1.58516e-29
4.51442e-30
7.91003e-29
8.05112e-29
-2.46084e-28
-7.36075e-28
-1.27383e-28
2.97145e-27
6.14849e-27
-1.5666e-28
-2.56518e-26
-5.65634e-26
-3.10703e-26
1.41956e-25
4.78281e-25
7.48001e-25
3.60815e-25
-1.52254e-24
-5.57645e-24
-1.17448e-23
-1.88808e-23
-2.49364e-23
-2.77516e-23
-2.60796e-23
-2.02635e-23
-1.21397e-23
-4.20047e-24
1.50437e-24
4.12682e-24
4.09815e-24
2.61253e-24
9.09754e-25
-2.37805e-25
-6.48832e-25
-5.43956e-25
-2.55713e-25
-2.06505e-26
8.12963e-26
8.01399e-26
3.94278e-26
4.05616e-27
-1.00558e-26
-5.96964e-53
2.81121e-53
-3.01168e-52
1.24968e-51
-5.37015e-51
2.15118e-50
-8.03813e-50
2.74347e-49
-8.23645e-49
1.97837e-48
-2.44968e-48
-9.78386e-48
9.7512e-47
-5.16678e-46
2.1305e-45
-7.32298e-45
2.10331e-44
-4.80403e-44
7.15366e-44
2.20671e-44
-6.00096e-43
2.34985e-42
-5.31898e-42
4.63912e-42
1.82892e-41
-9.55344e-41
2.06069e-40
-5.56355e-41
-1.14167e-39
3.74507e-39
-3.45996e-39
-1.38963e-38
5.66859e-38
-5.22294e-38
-2.22776e-37
7.87784e-37
-2.57203e-37
-4.13945e-36
8.64379e-36
1.00762e-35
-6.39974e-35
2.76205e-35
3.2579e-34
-4.9662e-34
-1.3354e-33
3.75778e-33
4.7537e-33
-2.25823e-32
-1.63941e-32
1.22747e-31
6.96756e-32
-6.31392e-31
-4.40065e-31
3.06769e-30
3.40525e-30
-1.33668e-29
-2.53374e-29
4.48193e-29
1.61566e-28
-4.46638e-29
-8.04467e-28
-8.25967e-28
2.48964e-27
7.49986e-27
1.39362e-27
-3.00818e-26
-6.27207e-26
4.48908e-28
2.58958e-25
5.75731e-25
3.26338e-25
-1.41639e-24
-4.82957e-24
-7.62041e-24
-3.85997e-24
1.4906e-23
5.54936e-23
1.17379e-22
1.89053e-22
2.49922e-22
2.78247e-22
2.6147e-22
2.03038e-22
1.21429e-22
4.17168e-23
-1.54883e-23
-4.16847e-23
-4.12463e-23
-2.6211e-23
-9.05443e-24
2.47108e-24
6.56829e-24
5.47966e-24
2.56162e-24
1.93456e-25
-8.27288e-25
-8.09354e-25
-3.95816e-25
-3.87924e-26
1.02225e-25
6.06726e-52
-2.9104e-52
3.08957e-51
-1.28842e-50
5.56302e-50
-2.24343e-49
8.46261e-49
-2.93086e-48
9.02769e-48
-2.29677e-47
3.66515e-47
5.40809e-47
-8.2774e-46
4.70762e-45
-2.00048e-44
6.9984e-44
-2.03635e-43
4.71075e-43
-7.17625e-43
-1.50436e-43
5.72216e-42
-2.28206e-41
5.23109e-41
-4.73484e-41
-1.73904e-40
9.29772e-40
-2.02991e-39
6.13378e-40
1.1052e-38
-3.67099e-38
3.46833e-38
1.34318e-37
-5.55372e-37
5.21481e-37
2.16257e-36
-7.73068e-36
2.64508e-36
4.0413e-35
-8.50943e-35
-9.7463e-35
6.27413e-34
-2.76962e-34
-3.1877e-33
4.89053e-33
1.30488e-32
-3.69026e-32
-4.64061e-32
2.21542e-31
1.60048e-31
-1.20369e-30
-6.81833e-31
6.19003e-30
4.31956e-30
-3.00623e-29
-3.34602e-29
1.30856e-28
2.48865e-28
-4.37513e-28
-1.58494e-27
4.24406e-28
7.8739e-27
8.15763e-27
-2.42337e-26
-7.35487e-26
-1.46496e-26
2.93008e-25
6.15844e-25
7.40732e-27
-2.51475e-24
-5.63998e-24
-3.30104e-24
1.35807e-23
4.69127e-23
7.4723e-23
3.97525e-23
-1.39905e-22
-5.30523e-22
-1.12745e-21
-1.81966e-21
-2.40801e-21
-2.68207e-21
-2.52021e-21
-1.95574e-21
-1.16744e-21
-3.97929e-22
1.53547e-22
4.05038e-22
3.99227e-22
2.52831e-22
8.65735e-23
-2.47298e-23
-6.39732e-23
-5.30902e-23
-2.46686e-23
-1.72217e-24
8.10227e-24
7.86292e-24
3.82062e-24
3.5426e-25
-1.0001e-24
-5.92367e-51
2.89242e-51
-3.04381e-50
1.2754e-49
-5.53159e-49
2.24474e-48
-8.54148e-48
2.99716e-47
-9.43854e-47
2.51429e-46
-4.69472e-46
-9.75978e-47
6.533e-45
-4.08126e-44
1.79715e-43
-6.4129e-43
1.89255e-42
-4.4377e-42
6.91976e-42
7.65779e-43
-5.23022e-41
2.12792e-40
-4.94324e-40
4.64443e-40
1.58447e-39
-8.68958e-39
1.92148e-38
-6.45139e-39
-1.02699e-37
3.45707e-37
-3.3426e-37
-1.24606e-36
5.22742e-36
-5.00585e-36
-2.01553e-35
7.28903e-35
-2.61482e-35
-3.78966e-34
8.05052e-34
9.04782e-34
-5.90977e-33
2.67087e-33
2.9963e-32
-4.62858e-32
-1.22475e-31
3.48234e-31
4.35101e-31
-2.08836e-30
-1.50057e-30
1.13415e-29
6.40857e-30
-5.83093e-29
-4.07332e-29
2.83062e-28
3.15906e-28
-1.23081e-27
-2.34874e-27
4.10295e-27
1.49396e-26
-3.86592e-27
-7.40447e-26
-7.7435e-26
2.26564e-25
6.93043e-25
1.47749e-25
-2.74128e-24
-5.81067e-24
-1.86777e-25
2.34512e-23
5.30864e-23
3.21064e-23
-1.24901e-22
-4.37603e-22
-7.04055e-22
-3.93496e-22
1.25591e-21
4.86301e-21
1.03888e-20
1.68053e-20
2.2264e-20
2.48096e-20
2.3311e-20
1.8077e-20
1.07684e-20
3.63855e-21
-1.46338e-21
-3.77939e-21
-3.7096e-21
-2.34055e-21
-7.93708e-22
2.37968e-22
5.98448e-22
4.93838e-22
2.27957e-22
1.44891e-23
-7.62418e-23
-7.33556e-23
-3.53957e-23
-3.07829e-24
9.40013e-24
5.54516e-50
-2.75445e-50
2.87446e-49
-1.20995e-48
5.27007e-48
-2.15117e-47
8.2513e-47
-2.92977e-46
9.40624e-46
-2.6019e-45
5.4131e-45
-3.00893e-45
-4.70585e-44
3.35223e-43
-1.54066e-42
5.62242e-42
-1.68511e-41
4.00857e-41
-6.40188e-41
-7.37186e-43
4.57239e-40
-1.90144e-39
4.47997e-39
-4.3705e-39
-1.38013e-38
7.78379e-38
-1.74458e-37
6.46974e-38
9.1425e-37
-3.12191e-36
3.09157e-36
1.10723e-35
-4.71815e-35
4.6116e-35
1.80001e-34
-6.59105e-34
2.48043e-34
3.40686e-33
-7.30594e-33
-8.04513e-33
5.33831e-32
-2.4727e-32
-2.7005e-31
4.2025e-31
1.1021e-30
-3.15193e-30
-3.91061e-30
1.88806e-29
1.34853e-29
-1.0249e-28
-5.7742e-29
5.26784e-28
3.68317e-28
-2.55615e-27
-2.8604e-27
1.11026e-26
2.12604e-26
-3.68959e-26
-1.3506e-25
3.36866e-26
6.67756e-25
7.0516e-25
-2.03066e-24
-6.2634e-24
-1.42734e-24
2.45875e-23
5.25871e-23
2.80111e-24
-2.0961e-22
-4.79223e-22
-2.9972e-22
1.09953e-21
3.91246e-21
6.36268e-21
3.73729e-21
-1.07537e-20
-4.26492e-20
-9.16427e-20
-1.48618e-19
-1.97136e-19
-2.1979e-19
-2.06501e-19
-1.6001e-19
-9.51e-20
-3.18216e-20
1.33835e-20
3.38009e-20
3.30264e-20
2.07531e-20
6.96236e-21
-2.1979e-21
-5.36685e-21
-4.40174e-21
-2.01727e-21
-1.14339e-22
6.88041e-22
6.55933e-22
3.14109e-22
2.53395e-23
-8.47288e-23
-4.96637e-49
2.50837e-49
-2.59662e-48
1.0978e-47
-4.80095e-47
1.9705e-46
-7.61464e-46
2.7329e-45
-8.92488e-45
2.54774e-44
-5.73888e-44
6.12179e-44
2.98466e-43
-2.59435e-42
1.25662e-41
-4.70503e-41
1.43432e-40
-3.46476e-40
5.67093e-40
-4.98478e-41
-3.81377e-39
1.62467e-38
-3.8858e-38
3.93757e-38
1.14631e-37
-6.6684e-37
1.51614e-36
-6.18e-37
-7.77989e-36
2.69785e-35
-2.73863e-35
-9.40298e-35
4.07505e-34
-4.06903e-34
-1.53703e-33
5.70396e-33
-2.25353e-33
-2.93e-32
6.3471e-32
6.83639e-32
-4.61484e-31
2.19348e-31
2.32889e-30
-3.6531e-30
-9.48801e-30
2.73079e-29
3.36211e-29
-1.63381e-28
-1.15912e-28
8.86447e-28
4.97662e-28
-4.555e-27
-3.18672e-27
2.20929e-26
2.47876e-26
-9.58531e-26
-1.84197e-25
3.17505e-25
1.16864e-24
-2.80146e-25
-5.76332e-24
-6.14799e-24
1.74124e-23
5.41799e-23
1.31835e-23
-2.10989e-22
-4.55564e-22
-3.43862e-23
1.79194e-21
4.14052e-21
2.68019e-21
-9.24359e-21
-3.34569e-20
-5.50393e-20
-3.39921e-20
8.75489e-20
3.57001e-19
7.72137e-19
1.25569e-18
1.66792e-18
1.86065e-18
1.74803e-18
1.35331e-18
8.02286e-19
2.65527e-19
-1.17225e-19
-2.89131e-19
-2.81114e-19
-1.75857e-19
-5.82942e-20
1.9446e-20
4.60436e-20
3.75146e-20
1.70571e-20
8.36898e-22
-5.94269e-21
-5.60975e-21
-2.66422e-21
-1.96478e-22
7.30874e-22
4.24546e-48
-2.17938e-48
2.23847e-47
-9.50399e-47
4.17237e-46
-1.72143e-45
6.69834e-45
-2.42776e-44
8.04944e-44
-2.36016e-43
5.65149e-43
-8.09748e-43
-1.52498e-42
1.87789e-41
-9.71755e-41
3.7479e-40
-1.1642e-39
2.85881e-39
-4.79884e-39
9.00649e-40
3.02639e-38
-1.32418e-37
3.21825e-37
-3.38881e-37
-9.05183e-37
5.45063e-36
-1.25831e-35
5.6148e-36
6.31268e-35
-2.2258e-34
2.31834e-34
7.61239e-34
-3.36017e-33
3.43108e-33
1.25184e-32
-4.71339e-32
1.95667e-32
2.40499e-31
-5.26665e-31
-5.53756e-31
3.80914e-30
-1.86041e-30
-1.91728e-29
3.03344e-29
7.79627e-29
-2.25954e-28
-2.75837e-28
1.35011e-27
9.50603e-28
-7.32142e-27
-4.09295e-27
3.76109e-26
2.63201e-26
-1.82343e-25
-2.05105e-25
7.90219e-25
1.52395e-24
-2.60871e-24
-9.6565e-24
2.21772e-24
4.74972e-23
5.12024e-23
-1.42513e-22
-4.47568e-22
-1.16177e-22
1.72817e-21
3.76924e-21
3.72716e-22
-1.46177e-20
-3.41625e-20
-2.29082e-20
7.40167e-20
2.73e-19
4.54701e-19
2.95442e-19
-6.75133e-19
-2.84439e-18
-6.19763e-18
-1.01106e-17
-1.34504e-17
-1.50142e-17
-1.41043e-17
-1.09089e-17
-6.44882e-18
-2.10794e-18
9.81181e-19
2.35992e-18
2.2821e-18
1.42058e-18
4.64602e-19
-1.64449e-19
-3.77019e-19
-3.04977e-19
-1.3746e-19
-5.57856e-21
4.90127e-20
4.57783e-20
2.1545e-20
1.42392e-21
-6.0197e-21
-3.45452e-47
1.80187e-47
-1.83664e-46
7.83001e-46
-3.45019e-45
1.43051e-44
-5.60254e-44
2.04903e-43
-6.88676e-43
2.0664e-42
-5.19466e-42
8.87434e-42
4.23499e-42
-1.25797e-40
7.09504e-40
-2.833e-39
8.98574e-39
-2.24582e-38
3.86926e-38
-1.11416e-38
-2.27742e-37
1.02669e-36
-2.53835e-36
2.77902e-36
6.77216e-36
-4.23922e-35
9.94726e-35
-4.84307e-35
-4.87037e-34
1.74858e-33
-1.87078e-33
-5.85817e-33
2.63825e-32
-2.75796e-32
-9.69761e-32
3.70934e-31
-1.61976e-31
-1.87902e-30
4.16339e-30
4.26329e-30
-2.99425e-29
1.50506e-29
1.50284e-28
-2.40014e-28
-6.09814e-28
1.78101e-27
2.15372e-27
-1.06269e-26
-7.41789e-27
5.75963e-26
3.20335e-26
-2.95799e-25
-2.06962e-25
1.43346e-24
1.61628e-24
-6.20499e-24
-1.20093e-23
2.04125e-23
7.6002e-23
-1.66632e-23
-3.72812e-22
-4.06304e-22
1.11043e-21
3.52178e-21
9.74438e-22
-1.3476e-20
-2.97091e-20
-3.67163e-21
1.13482e-19