/*--------------------------------*- C++ -*----------------------------------*\
  =========                 |
  \\      /  F ield         | OpenFOAM: The Open Source CFD Toolbox
   \\    /   O peration     | Website:  https://openfoam.org
    \\  /    A nd           | Version:  13
     \\/     M anipulation  |
\*---------------------------------------------------------------------------*/
FoamFile
{
    format      ascii;
    class       volScalarField;
    location    "3.9";
    object      T;
}
// * * * * * * * * * * * * * * * * * * * * * * * * * * * * * * * * * * * * * //

dimensions      [0 0 0 1 0 0 0];

internalField   nonuniform List<scalar> 
10000
(
1.78274e-75
-6.38756e-77
4.79033e-75
-1.03647e-74
5.00642e-75
2.04846e-73
-1.96648e-72
1.31275e-71
-7.39957e-71
3.72146e-70
-1.7059e-69
7.18573e-69
-2.78429e-68
9.88048e-68
-3.17782e-67
9.07993e-67
-2.214e-66
4.16641e-66
-3.80391e-66
-1.17032e-65
7.61346e-65
-2.36874e-64
4.39693e-64
-1.30762e-64
-2.38667e-63
9.33935e-63
-1.66012e-62
-4.98583e-63
1.20159e-61
-3.28441e-61
1.93361e-61
1.49053e-60
-5.01578e-60
3.23773e-60
2.25527e-59
-6.8015e-59
5.29721e-60
3.86625e-58
-7.0982e-58
-1.06568e-57
5.61971e-57
-1.59393e-57
-2.946e-56
4.07822e-56
1.22985e-55
-3.22596e-55
-4.4245e-55
1.96951e-54
1.51588e-54
-1.07789e-53
-6.18783e-54
5.57111e-53
3.73885e-53
-2.72869e-52
-2.86518e-52
1.21078e-51
2.1587e-51
-4.25581e-51
-1.41012e-50
6.02806e-51
7.30005e-50
6.38407e-50
-2.46104e-49
-6.59399e-49
2.31589e-50
2.94046e-48
5.40722e-48
-1.76339e-48
-2.64e-47
-5.15771e-47
-1.42207e-47
1.69265e-46
4.90071e-46
6.73069e-46
7.0169e-47
-2.20561e-45
-6.83512e-45
-1.37026e-44
-2.15333e-44
-2.81139e-44
-3.11356e-44
-2.92773e-44
-2.29157e-44
-1.40193e-44
-5.26473e-45
1.12728e-45
4.20454e-45
4.38176e-45
2.90865e-45
1.11425e-45
-1.46431e-46
-6.4099e-46
-5.74868e-46
-2.90231e-46
-4.21111e-47
7.4327e-47
8.18618e-47
4.35915e-47
7.17364e-48
-9.33944e-48
-3.02009e-74
2.401e-75
-8.8309e-74
2.21512e-73
-3.4973e-73
-2.02448e-72
2.58565e-71
-1.85957e-70
1.08494e-69
-5.56646e-69
2.58523e-68
-1.09917e-67
4.28916e-67
-1.53069e-66
4.94671e-66
-1.41962e-65
3.47742e-65
-6.58618e-65
6.15089e-65
1.79389e-64
-1.18971e-63
3.72543e-63
-6.96257e-63
2.22141e-63
3.72711e-62
-1.47027e-61
2.63125e-61
7.32731e-62
-1.88736e-60
5.18932e-60
-3.11604e-60
-2.33995e-59
7.92222e-59
-5.1892e-59
-3.54663e-58
1.07516e-57
-9.30839e-59
-6.09545e-57
1.12403e-56
1.67385e-56
-8.87793e-56
2.56214e-56
4.6495e-55
-6.45731e-55
-1.93989e-54
5.09988e-54
6.97708e-54
-3.11187e-53
-2.39124e-53
1.70267e-52
9.77531e-53
-8.79877e-52
-5.91519e-52
4.30824e-51
4.53382e-51
-1.91039e-50
-3.41393e-50
6.7039e-50
2.22797e-49
-9.40089e-50
-1.15178e-48
-1.01337e-48
3.87189e-48
1.04153e-47
-2.84168e-49
-4.62793e-47
-8.5466e-47
2.68958e-47
4.14969e-46
8.14108e-46
2.32574e-46
-2.64886e-45
-7.70444e-45
-1.06289e-44
-1.25515e-45
3.43478e-44
1.06889e-43
2.14579e-43
3.37427e-43
4.40693e-43
4.8813e-43
4.58989e-43
3.59177e-43
2.19603e-43
8.22817e-44
-1.79333e-44
-6.61142e-44
-6.87953e-44
-4.56106e-44
-1.7425e-44
2.35167e-45
1.00895e-44
9.02887e-45
4.54848e-45
6.51359e-46
-1.17311e-45
-1.28712e-45
-6.8369e-46
-1.11238e-46
1.47322e-46
6.20833e-73
-6.89271e-74
1.92154e-72
-5.23497e-72
1.11198e-71
2.01677e-71
-4.20897e-70
3.28218e-69
-1.98018e-68
1.03481e-67
-4.86246e-67
2.08428e-66
-8.18283e-66
2.9343e-65
-9.52109e-65
2.74241e-64
-6.74324e-64
1.28392e-63
-1.22098e-63
-3.40768e-63
2.29724e-62
-7.23212e-62
1.3592e-61
-4.57619e-62
-7.19294e-61
2.85648e-60
-5.14049e-60
-1.34013e-60
3.66e-59
-1.0112e-58
6.16913e-59
4.53566e-58
-1.54332e-57
1.02292e-57
6.88446e-57
-2.09594e-56
1.96363e-57
1.18567e-55
-2.19435e-55
-3.24589e-55
1.7298e-54
-5.06251e-55
-9.05193e-54
1.26049e-53
3.77494e-53
-9.94241e-53
-1.3574e-52
6.06401e-52
4.65349e-52
-3.31729e-51
-1.90459e-51
1.714e-50
1.15389e-50
-8.39034e-50
-8.84561e-50
3.71848e-49
6.65758e-49
-1.30313e-48
-4.34149e-48
1.81226e-48
2.24181e-47
1.98216e-47
-7.5186e-47
-2.02906e-46
4.23531e-48
8.98954e-46
1.66594e-45
-5.08713e-46
-8.05201e-45
-1.58512e-44
-4.6578e-45
5.12102e-44
1.49516e-43
2.0703e-43
2.67946e-44
-6.61331e-43
-2.06527e-42
-4.15074e-42
-6.53062e-42
-8.53166e-42
-9.45116e-42
-8.88679e-42
-6.95302e-42
-4.24896e-42
-1.58901e-42
3.51405e-43
1.28327e-42
1.33362e-42
8.83273e-43
3.3668e-43
-4.64326e-44
-1.96001e-43
-1.75079e-43
-8.80412e-44
-1.24695e-44
2.28398e-44
2.49809e-44
1.32421e-44
2.13407e-45
-2.86693e-45
-1.2455e-71
1.74898e-72
-4.05366e-71
1.17772e-70
-2.96617e-70
-3.32179e-72
6.37432e-69
-5.57354e-68
3.50471e-67
-1.87125e-66
8.90958e-66
-3.85363e-65
1.52298e-64
-5.48967e-64
1.78895e-63
-5.17287e-63
1.27704e-62
-2.4449e-62
2.36834e-62
6.31269e-62
-4.33112e-61
1.3712e-60
-2.59204e-60
9.19963e-61
1.35535e-59
-5.42035e-59
9.81075e-59
2.37758e-59
-6.93154e-58
1.92477e-57
-1.19348e-57
-8.58596e-57
2.93681e-56
-1.97031e-56
-1.30517e-55
3.99123e-55
-4.03401e-56
-2.25272e-54
4.18484e-54
6.14714e-54
-3.29225e-53
9.77467e-54
1.72138e-52
-2.40367e-52
-7.17518e-52
1.89343e-51
2.57946e-51
-1.15429e-50
-8.84551e-51
6.31322e-50
3.62479e-50
-3.26145e-49
-2.19882e-49
1.59613e-48
1.68588e-48
-7.06981e-48
-1.26826e-47
2.47413e-47
8.26392e-47
-3.41084e-47
-4.26214e-46
-3.78775e-46
1.42596e-45
3.8613e-45
-5.48897e-47
-1.70549e-44
-3.17212e-44
9.37912e-45
1.52592e-43
3.01473e-43
9.11477e-44
-9.6674e-43
-2.83384e-42
-3.93905e-42
-5.56242e-43
1.24305e-41
3.89636e-41
7.84031e-41
1.23428e-40
1.61294e-40
1.787e-40
1.68027e-40
1.31439e-40
8.02791e-41
2.99627e-41
-6.72754e-42
-2.4327e-41
-2.52478e-41
-1.6704e-41
-6.3519e-42
8.95845e-43
3.71885e-42
3.3156e-42
1.66414e-42
2.32944e-43
-4.34359e-43
-4.73525e-43
-2.5047e-43
-3.99582e-44
5.4496e-44
2.43672e-70
-4.0899e-71
8.29316e-70
-2.53671e-69
7.14463e-69
-7.25577e-69
-8.6952e-68
9.05966e-67
-6.00319e-66
3.2874e-65
-1.58888e-64
6.94139e-64
-2.7632e-63
1.00159e-62
-3.27899e-62
9.52045e-62
-2.36023e-61
4.54463e-61
-4.48556e-61
-1.13948e-60
7.96726e-60
-2.53731e-59
4.8254e-59
-1.80346e-59
-2.49172e-58
1.00387e-57
-1.82788e-57
-4.08384e-58
1.28113e-56
-3.57625e-56
2.25451e-56
1.58614e-55
-5.45505e-55
3.70562e-55
2.41492e-54
-7.41909e-54
8.06654e-55
4.17761e-53
-7.79096e-53
-1.13612e-52
6.11644e-52
-1.84287e-52
-3.19525e-51
4.47454e-51
1.33119e-50
-3.51987e-50
-4.7844e-50
2.14479e-49
1.64115e-49
-1.17281e-48
-6.73387e-49
6.05782e-48
4.09012e-48
-2.96385e-47
-3.13656e-47
1.31203e-46
2.35842e-46
-4.58488e-46
-1.53548e-45
6.26299e-46
7.90949e-45
7.06626e-45
-2.63952e-44
-7.17264e-44
5.2456e-46
3.15803e-43
5.89597e-43
-1.68412e-43
-2.82224e-42
-5.59671e-42
-1.7415e-42
1.78078e-41
5.24203e-41
7.3157e-41
1.1226e-41
-2.27924e-40
-7.17256e-40
-1.44511e-39
-2.27637e-39
-2.97568e-39
-3.29723e-39
-3.10024e-39
-2.42468e-39
-1.48009e-39
-5.51255e-40
1.25746e-40
4.50086e-40
4.66472e-40
3.0827e-40
1.16929e-40
-1.68768e-41
-6.88674e-41
-6.12782e-41
-3.06953e-41
-4.24327e-42
8.0631e-42
8.76021e-42
4.62323e-42
7.29666e-43
-1.01111e-42
-4.64672e-69
8.99041e-70
-1.64609e-68
5.25201e-68
-1.60158e-67
2.68851e-67
9.85189e-67
-1.39889e-65
9.92671e-65
-5.60322e-64
2.75512e-63
-1.21714e-62
4.8837e-62
-1.78094e-61
5.85921e-61
-1.70864e-60
4.25468e-60
-8.24138e-60
8.2906e-60
2.00265e-59
-1.42913e-58
4.57966e-58
-8.76423e-58
3.44592e-58
4.46666e-57
-1.81356e-56
3.3227e-56
6.77508e-57
-2.30951e-55
6.48243e-55
-4.15618e-55
-2.8579e-54
9.88502e-54
-6.80114e-54
-4.35833e-53
1.34543e-52
-1.56968e-53
-7.55746e-52
1.41513e-51
2.04803e-51
-1.10857e-50
3.3908e-51
5.786e-50
-8.12672e-50
-2.40925e-49
6.38372e-49
8.65676e-49
-3.8879e-48
-2.97034e-48
2.1255e-47
1.22039e-47
-1.09769e-46
-7.42262e-47
5.36908e-46
5.69323e-46
-2.37533e-45
-4.27868e-45
8.28806e-45
2.78334e-44
-1.12129e-44
-1.4319e-43
-1.28622e-43
4.76584e-43
1.29982e-42
-2.00416e-46
-5.70409e-42
-1.06913e-41
2.94267e-42
5.09138e-41
1.0136e-40
3.24694e-41
-3.1989e-40
-9.45813e-40
-1.32549e-39
-2.20251e-40
4.07433e-39
1.28754e-38
2.5976e-38
4.0944e-38
5.35396e-38
5.93334e-38
5.57876e-38
4.36221e-38
2.66123e-38
9.88965e-39
-2.29339e-39
-8.12248e-39
-8.4059e-39
-5.54849e-39
-2.099e-39
3.10277e-40
1.24401e-39
1.10462e-39
5.52169e-40
7.53188e-41
-1.46017e-40
-1.58077e-40
-8.32283e-41
-1.29862e-41
1.8301e-41
8.63226e-68
-1.87752e-68
3.17045e-67
-1.04784e-66
3.39149e-66
-7.26548e-66
-6.5904e-66
2.02664e-64
-1.5794e-63
9.25078e-63
-4.64005e-62
2.07571e-61
-8.40164e-61
3.08397e-60
-1.01999e-59
2.98826e-59
-7.47579e-59
1.4571e-58
-1.49444e-58
-3.42401e-58
2.49801e-57
-8.0574e-57
1.55205e-56
-6.41408e-57
-7.80207e-56
3.19379e-55
-5.88924e-55
-1.08223e-55
4.05811e-54
-1.14559e-53
7.47259e-54
5.01901e-53
-1.74636e-52
1.21737e-52
7.66722e-52
-2.37883e-51
2.97143e-52
1.33282e-50
-2.50621e-50
-3.5985e-50
1.95889e-49
-6.08491e-50
-1.02145e-48
1.43913e-48
4.25088e-48
-1.1288e-47
-1.52698e-47
6.87119e-47
5.24102e-47
-3.75559e-46
-2.15628e-46
1.9392e-45
1.31333e-45
-9.48241e-45
-1.00755e-44
4.19247e-44
7.56825e-44
-1.46055e-43
-4.91895e-43
1.95603e-43
2.52721e-42
2.28291e-42
-8.38824e-42
-2.29652e-41
-1.67117e-43
1.00434e-40
1.89017e-40
-4.9986e-41
-8.9531e-40
-1.78967e-39
-5.90372e-40
5.60001e-39
1.66346e-38
2.34142e-38
4.20016e-39
-7.09555e-38
-2.2523e-37
-4.55047e-37
-7.17739e-37
-9.38862e-37
-1.04061e-36
-9.78409e-37
-7.6488e-37
-4.66335e-37
-1.72891e-37
4.07882e-38
1.42885e-37
1.47644e-37
9.73338e-38
3.67182e-38
-5.56344e-39
-2.19057e-38
-1.94089e-38
-9.68066e-39
-1.30177e-39
2.57796e-39
2.78053e-39
1.46031e-39
2.25094e-40
-3.22931e-40
-1.56128e-66
3.74801e-67
-5.92531e-66
2.01775e-65
-6.84088e-65
1.69973e-64
-7.96731e-65
-2.69409e-63
2.40716e-62
-1.47648e-61
7.58047e-61
-3.43953e-60
1.40569e-59
-5.19678e-59
1.72857e-58
-5.08924e-58
1.27945e-57
-2.50999e-57
2.62546e-57
5.68967e-57
-4.25174e-56
1.3809e-55
-2.67804e-55
1.16235e-55
1.32699e-54
-5.47905e-54
1.01709e-53
1.65756e-54
-6.94553e-53
1.97246e-52
-1.30947e-52
-8.58525e-52
3.0059e-51
-2.12373e-51
-1.31389e-50
4.09791e-50
-5.46977e-51
-2.28991e-49
4.32478e-49
6.15857e-49
-3.37246e-48
1.06431e-48
1.75682e-47
-2.48321e-47
-7.30696e-47
1.94474e-46
2.62399e-46
-1.18316e-45
-9.0091e-46
6.46526e-45
3.71185e-45
-3.33776e-44
-2.26411e-44
1.63163e-43
1.73735e-43
-7.20923e-43
-1.30433e-42
2.50742e-42
8.4698e-42
-3.32229e-42
-4.34553e-41
-3.94835e-41
1.43821e-40
3.95319e-40
5.92825e-42
-1.72265e-39
-3.25589e-39
8.2458e-40
1.5336e-38
3.07864e-38
1.04615e-38
-9.54705e-38
-2.84984e-37
-4.02965e-37
-7.78295e-38
1.20298e-36
3.83673e-36
7.76334e-36
1.22537e-35
1.60347e-35
1.77753e-35
1.67124e-35
1.3062e-35
7.95845e-36
2.9432e-36
-7.0693e-37
-2.44843e-36
-2.52591e-36
-1.66301e-36
-6.25494e-37
9.72264e-38
3.75765e-37
3.32177e-37
1.65298e-37
2.18902e-38
-4.43431e-38
-4.76419e-38
-2.49557e-38
-3.79694e-39
5.55154e-39
2.7475e-65
-7.17896e-66
1.07436e-64
-3.75374e-64
1.32088e-63
-3.62966e-63
4.69454e-63
3.13283e-62
-3.49207e-61
2.27272e-60
-1.19962e-59
5.53191e-59
-2.28522e-58
8.51453e-58
-2.84954e-57
8.43389e-57
-2.13133e-56
4.20958e-56
-4.49225e-56
-9.1795e-56
7.04145e-55
-2.30367e-54
4.49927e-54
-2.04949e-54
-2.19596e-53
9.14988e-53
-1.71037e-52
-2.41996e-53
1.15703e-51
-3.30651e-51
2.23494e-51
1.42934e-50
-5.0372e-50
3.60835e-50
2.19162e-49
-6.8731e-49
9.78622e-50
3.83008e-48
-7.26661e-48
-1.02587e-47
5.65279e-47
-1.81317e-47
-2.94171e-46
4.17203e-46
1.22277e-45
-3.26214e-45
-4.3897e-45
1.98353e-44
1.50762e-44
-1.08362e-43
-6.22078e-44
5.59325e-43
3.80028e-43
-2.73336e-42
-2.91684e-42
1.2069e-41
2.18865e-41
-4.19054e-41
-1.4199e-40
5.49006e-41
7.27455e-40
6.64957e-40
-2.40037e-39
-6.62531e-39
-1.52518e-40
2.87627e-38
5.4605e-38
-1.31942e-38
-2.55702e-37
-5.15602e-37
-1.80543e-37
1.58386e-36
4.75243e-36
6.75206e-36
1.40085e-36
-1.98395e-35
-6.35979e-35
-1.28892e-34
-2.03598e-34
-2.66523e-34
-2.95503e-34
-2.77827e-34
-2.1709e-34
-1.32176e-34
-4.8752e-35
1.19317e-35
4.08397e-35
4.20606e-35
2.76535e-35
1.03684e-35
-1.6549e-36
-6.27467e-36
-5.53351e-36
-2.74686e-36
-3.57826e-37
7.42582e-37
7.94585e-37
4.1507e-37
6.22778e-38
-9.29126e-38
-4.70105e-64
1.32246e-64
-1.8893e-63
6.75018e-63
-2.44885e-62
7.24039e-62
-1.33428e-61
-2.76678e-61
4.77524e-60
-3.36373e-59
1.83594e-58
-8.62543e-58
3.60622e-57
-1.3552e-56
4.56559e-56
-1.35893e-55
3.45305e-55
-6.86855e-55
7.48057e-55
1.43629e-54
-1.13379e-53
3.73796e-53
-7.35451e-53
3.51367e-53
3.5329e-52
-1.48629e-51
2.79849e-51
3.33802e-52
-1.87461e-50
5.39241e-50
-3.71245e-50
-2.31433e-49
8.21206e-49
-5.96665e-49
-3.55571e-48
1.12152e-47
-1.70085e-48
-6.23171e-47
1.18794e-46
1.66198e-46
-9.21791e-46
3.00645e-46
4.79188e-45
-6.8199e-45
-1.99055e-44
5.32369e-44
7.14364e-44
-3.23516e-43
-2.45424e-43
1.76693e-42
1.01424e-42
-9.11856e-42
-6.20588e-42
4.45472e-41
4.76447e-41
-1.96557e-40
-3.57305e-40
6.81267e-40
2.31581e-39
-8.81943e-40
-1.18468e-38
-1.08968e-38
3.89683e-38
1.08024e-37
3.38859e-39
-4.67138e-37
-8.9097e-37
2.04515e-37
4.14675e-36
8.40067e-36
3.03225e-36
-2.555e-35
-7.70844e-35
-1.10067e-34
-2.44796e-35
3.18014e-34
1.025e-33
2.08088e-33
3.28959e-33
4.30805e-33
4.77731e-33
4.49146e-33
3.50864e-33
2.13467e-33
7.85133e-34
-1.95968e-34
-6.62574e-34
-6.81164e-34
-4.47187e-34
-1.67108e-34
2.74149e-35
1.01917e-34
8.96523e-35
4.43888e-35
5.68071e-36
-1.20977e-35
-1.28899e-35
-6.71374e-36
-9.92382e-37
1.51274e-36
7.81506e-63
-2.34631e-63
3.22095e-62
-1.17357e-61
4.36742e-61
-1.36536e-60
3.05184e-60
5.2798e-61
-6.05505e-59
4.76791e-58
-2.71204e-57
1.3021e-56
-5.5182e-56
2.09339e-55
-7.10345e-55
2.12711e-54
-5.43654e-54
1.08944e-53
-1.21137e-53
-2.1768e-53
1.77338e-52
-5.89456e-52
1.16871e-51
-5.85289e-52
-5.52095e-51
2.3465e-50
-4.45158e-50
-4.28713e-51
2.9515e-49
-8.54873e-49
5.99713e-49
3.64139e-48
-1.30141e-47
9.59461e-48
5.6064e-47
-1.779e-46
2.86983e-47
9.85527e-46
-1.88802e-45
-2.61649e-45
1.4612e-44
-4.84814e-45
-7.58747e-44
1.08383e-43
3.14972e-43
-8.44591e-43
-1.12997e-42
5.12937e-42
3.88335e-42
-2.80073e-41
-1.6074e-41
1.44509e-40
9.85176e-41
-7.05739e-40
-7.5657e-40
3.11169e-39
5.6706e-39
-1.07652e-38
-3.67164e-38
1.37611e-38
1.87537e-37
1.73615e-37
-6.14845e-37
-1.71214e-36
-6.85913e-38
7.37381e-36
1.41324e-35
-3.06626e-36
-6.5355e-35
-1.33048e-34
-4.95236e-35
4.00426e-34
1.21512e-33
1.74415e-33
4.15097e-34
-4.95013e-33
-1.60484e-32
-3.26397e-32
-5.16429e-32
-6.76611e-32
-7.50451e-32
-7.05532e-32
-5.50993e-32
-3.34962e-32
-1.22829e-32
3.12963e-33
1.0447e-32
1.07199e-32
7.02672e-33
2.61646e-33
-4.41662e-34
-1.60893e-33
-1.41154e-33
-6.96974e-34
-8.75004e-35
1.91582e-34
2.03217e-34
1.05521e-34
1.53483e-35
-2.39407e-35
-1.26126e-61
4.01252e-62
-5.32069e-61
1.97254e-60
-7.50125e-60
2.45046e-59
-6.1983e-59
5.36411e-59
6.89704e-58
-6.43709e-57
3.85791e-56
-1.90029e-55
8.17814e-55
-3.1351e-54
1.0722e-53
-3.23157e-53
8.31056e-53
-1.67834e-52
1.90601e-52
3.1911e-52
-2.69204e-51
9.02597e-51
-1.804e-50
9.46535e-51
8.37286e-50
-3.59738e-49
6.87857e-49
4.98856e-50
-4.51193e-48
1.31631e-47
-9.41354e-48
-5.5626e-47
2.00313e-46
-1.49913e-46
-8.5835e-46
2.74093e-45
-4.69776e-46
-1.51363e-44
2.91478e-44
3.99938e-44
-2.24969e-43
7.59707e-44
1.16682e-42
-1.67315e-42
-4.84029e-42
1.30148e-41
1.73581e-41
-7.89911e-41
-5.96742e-41
4.31185e-40
2.47416e-40
-2.22432e-39
-1.51907e-39
1.08593e-38
1.16694e-38
-4.78434e-38
-8.74133e-38
1.65199e-37
5.65407e-37
-2.08362e-37
-2.88328e-36
-2.68719e-36
9.42042e-36
2.63574e-35
1.29469e-36
-1.13031e-34
-2.17732e-34
4.43898e-35
1.00016e-33
2.04659e-33
7.85894e-34
-6.09149e-33
-1.85992e-32
-2.68443e-32
-6.82584e-33
7.47528e-32
2.43882e-31
4.96979e-31
7.87039e-31
1.03163e-30
1.14444e-30
1.07592e-30
8.40001e-31
5.10228e-31
1.86497e-31
-4.85578e-32
-1.59948e-31
-1.63799e-31
-1.07191e-31
-3.97622e-32
6.91394e-33
2.46651e-32
2.15785e-32
1.06238e-32
1.30625e-33
-2.94667e-33
-3.11098e-33
-1.61013e-33
-2.30162e-34
3.67977e-34
1.97444e-60
-6.61668e-61
8.511e-60
-3.20445e-59
1.24146e-58
-4.20247e-58
1.15917e-57
-1.76187e-57
-6.53228e-57
8.21147e-56
-5.26968e-55
2.67654e-54
-1.17237e-53
4.54702e-53
-1.56847e-52
4.76048e-52
-1.23231e-51
2.50905e-51
-2.91138e-51
-4.51783e-51
3.96229e-50
-1.34079e-49
2.7024e-49
-1.4849e-49
-1.23108e-48
5.35065e-48
-1.03154e-47
-4.93951e-49
6.6906e-47
-1.96679e-46
1.43452e-46
8.24238e-46
-2.99185e-45
2.27395e-45
1.27486e-44
-4.09804e-44
7.45494e-45
2.2556e-43
-4.36719e-43
-5.92981e-43
3.36111e-42
-1.15581e-42
-1.74113e-41
2.50674e-41
7.2173e-41
-1.94623e-40
-2.5872e-40
1.18045e-39
8.89737e-40
-6.44177e-39
-3.69537e-39
3.32237e-38
2.27302e-38
-1.62142e-37
-1.74672e-37
7.13796e-37
1.30766e-36
-2.4597e-36
-8.44922e-36
3.05848e-36
4.30142e-35
4.03686e-35
-1.40031e-34
-3.93743e-34
-2.30616e-35
1.68097e-33
3.25532e-33
-6.19251e-34
-1.48485e-32
-3.05484e-32
-1.21071e-32
8.98625e-32
2.76182e-31
4.00927e-31
1.08773e-31
-1.09405e-30
-3.59372e-30
-7.33851e-30
-1.16329e-29
-1.52557e-29
-1.69274e-29
-1.59134e-29
-1.24202e-29
-7.53742e-30
-2.74557e-30
7.3131e-31
2.37572e-30
2.42778e-30
1.58597e-30
5.8593e-31
-1.05077e-31
-3.66852e-31
-3.19993e-31
-1.57057e-31
-1.88773e-32
4.39786e-32
4.62021e-32
2.38302e-32
3.34287e-33
-5.48811e-33
-2.99538e-59
1.05212e-59
-1.31737e-58
5.0293e-58
-1.98017e-57
6.9032e-57
-2.03055e-56
4.0008e-56
3.76952e-56
-9.77179e-55
6.88657e-54
-3.63123e-53
1.62332e-52
-6.379e-52
2.22124e-51
-6.79282e-51
1.77078e-50
-3.63636e-50
4.31306e-50
6.16603e-50
-5.64862e-49
1.9303e-48
-3.92493e-48
2.25766e-48
1.75303e-47
-7.71352e-47
1.4999e-46
3.35071e-48
-9.61429e-46
2.84893e-45
-2.1203e-45
-1.18346e-44
4.33202e-44
-3.34539e-44
-1.83507e-43
5.94011e-43
-1.14594e-43
-3.25819e-42
6.34424e-42
8.51978e-42
-4.86822e-41
1.70566e-41
2.5186e-40
-3.64142e-40
-1.04318e-39
2.82165e-39
3.73791e-39
-1.71022e-38
-1.2859e-38
9.32991e-38
5.35044e-38
-4.81089e-37
-3.2974e-37
2.347e-36
2.53485e-36
-1.03237e-35
-1.89656e-35
3.54996e-35
1.22407e-34
-4.34773e-35
-6.22075e-34
-5.88042e-34
2.01747e-33
5.70237e-33
3.90249e-34
-2.42305e-32
-4.71861e-32
8.30435e-33
2.13644e-31
4.42042e-31
1.80898e-31
-1.28423e-30
-3.97459e-30
-5.8051e-30
-1.67843e-30
1.55012e-29
5.12955e-29
1.04982e-28
1.66588e-28
2.18583e-28
2.4259e-28
2.28052e-28
1.77931e-28
1.07878e-28
3.91499e-29
-1.0681e-29
-3.4199e-29
-3.48703e-29
-2.27368e-29
-8.36358e-30
1.54894e-30
5.28851e-30
4.59852e-30
2.24961e-30
2.63753e-31
-6.36304e-31
-6.65007e-31
-3.41742e-31
-4.69676e-32
7.93458e-32
4.39946e-58
-1.61284e-58
1.97147e-57
-7.62138e-57
3.04356e-56
-1.08762e-55
3.36223e-55
-7.73044e-55
3.03679e-55
1.06031e-53
-8.56818e-53
4.73424e-52
-2.16761e-51
8.64482e-51
-3.04169e-50
9.37841e-50
-2.46317e-49
5.10394e-49
-6.19078e-49
-8.09579e-49
7.79083e-48
-2.69045e-47
5.52124e-47
-3.32357e-47
-2.41488e-46
1.07664e-45
-2.11242e-45
8.8061e-48
1.33739e-44
-3.99655e-44
3.03658e-44
1.64483e-43
-6.0745e-43
4.76871e-43
2.55725e-42
-8.33886e-42
1.70472e-42
4.55731e-41
-8.9268e-41
-1.18493e-40
6.8287e-40
-2.43912e-40
-3.52809e-39
5.12361e-39
1.46009e-38
-3.96201e-38
-5.22929e-38
2.39964e-37
1.79958e-37
-1.30868e-36
-7.50192e-37
6.74659e-36
4.6327e-36
-3.29008e-35
-3.56283e-35
1.44596e-34
2.66405e-34
-4.96116e-34
-1.71747e-33
5.97854e-34
8.71224e-33
8.29762e-33
-2.81424e-32
-7.99803e-32
-6.29826e-33
3.38179e-31
6.62427e-31
-1.06734e-31
-2.97599e-30
-6.19453e-30
-2.61885e-30
1.77599e-29
5.53771e-29
8.14025e-29
2.50572e-29
-2.12373e-28
-7.08434e-28
-1.45339e-27
-2.30884e-27
-3.03119e-27
-3.36491e-27
-3.16316e-27
-2.46708e-27
-1.49422e-27
-5.40107e-28
1.51129e-28
4.76625e-28
4.84824e-28
3.15495e-28
1.15512e-28
-2.21243e-29
-7.38173e-29
-6.39729e-29
-3.11859e-29
-3.55779e-30
8.91566e-30
9.26687e-30
4.7436e-30
6.37533e-31
-1.1109e-30
-6.24918e-57
2.38241e-57
-2.8499e-56
1.11433e-55
-4.50617e-55
1.64464e-54
-5.28976e-54
1.34888e-53
-1.59081e-53
-9.99171e-53
1.00799e-51
-5.9149e-51
2.78621e-50
-1.13008e-49
4.02235e-49
-1.25132e-48
3.31297e-48
-6.93019e-48
8.60016e-48
1.02004e-47
-1.03835e-46
3.62634e-46
-7.51424e-46
4.73239e-46
3.2142e-45
-1.45334e-44
2.87852e-44
-9.12534e-46
-1.79881e-43
5.42354e-43
-4.20926e-43
-2.21029e-42
8.23986e-42
-6.5792e-42
-3.44612e-41
1.13249e-40
-2.45186e-41
-6.16556e-40
1.21528e-39
1.59341e-39
-9.26628e-39
3.37631e-39
4.78066e-38
-6.97511e-38
-1.97671e-37
5.38216e-37
7.076e-37
-3.25727e-36
-2.43591e-36
1.77581e-35
1.01747e-35
-9.15259e-35
-6.29667e-35
4.46163e-34
4.84472e-34
-1.95909e-33
-3.62033e-33
6.70619e-33
2.3312e-32
-7.94284e-33
-1.1803e-31
-1.13293e-31
3.79665e-31
1.08522e-30
9.71657e-32
-4.56485e-30
-8.99679e-30
1.3098e-30
4.00882e-29
8.39737e-29
3.66951e-29
-2.37386e-28
-7.46135e-28
-1.10426e-27
-3.61575e-28
2.80981e-27
9.45555e-27
1.94491e-26
3.09337e-26
4.06363e-26
4.51219e-26
4.24151e-26
3.30685e-26
2.00063e-26
7.2004e-27
-2.0694e-27
-6.42384e-27
-6.51777e-27
-4.23236e-27
-1.54181e-27
3.05876e-28
9.965e-28
8.60552e-28
4.17932e-28
4.62603e-29
-1.20845e-28
-1.24879e-28
-6.36585e-29
-8.3485e-30
1.50451e-29
8.57481e-56
-3.38888e-56
3.97538e-55
-1.57061e-54
6.42271e-54
-2.38727e-53
7.93101e-53
-2.1791e-52
3.6999e-52
7.07826e-52
-1.10967e-50
7.05715e-50
-3.44034e-49
1.42272e-48
-5.1296e-48
1.6114e-47
-4.30323e-47
9.09215e-47
-1.15495e-46
-1.22961e-46
1.33554e-45
-4.72092e-45
9.88241e-45
-6.51024e-45
-4.12805e-44
1.89503e-43
-3.79064e-43
2.28676e-44
2.3365e-42
-7.11149e-42
5.64097e-42
2.86814e-41
-1.07994e-40
8.77531e-41
4.48531e-40
-1.48614e-39
3.40586e-40
8.05837e-39
-1.59885e-38
-2.06919e-38
1.21494e-37
-4.51885e-38
-6.25873e-37
9.17669e-37
2.58542e-36
-7.06499e-36
-9.24994e-36
4.27227e-35
3.18536e-35
-2.32836e-34
-1.33325e-34
1.19975e-33
8.26959e-34
-5.84604e-33
-6.36591e-33
2.56459e-32
4.7541e-32
-8.75755e-32
-3.05752e-31
1.0182e-31
1.54496e-30
1.49504e-30
-4.94766e-30
-1.4228e-29
-1.43468e-30
5.95223e-29
1.18073e-28
-1.52695e-29
-5.21577e-28
-1.0999e-27
-4.9708e-28
3.06291e-27
9.71011e-27
1.44743e-26
5.03787e-27
-3.58501e-26
-1.21809e-25
-2.51256e-25
-4.00139e-25
-5.25991e-25
-5.84212e-25
-5.49148e-25
-4.27959e-25
-2.58605e-25
-9.26388e-26
2.73904e-26
8.36253e-26
8.46186e-26
5.48221e-26
1.98629e-26
-4.08848e-27
-1.29947e-26
-1.11797e-26
-5.40761e-27
-5.78786e-28
1.58261e-27
1.62544e-27
8.24903e-28
1.053e-28
-1.96864e-28
-1.13517e-54
4.63814e-55
-5.34493e-54
2.13189e-53
-8.80583e-53
3.32558e-52
-1.13503e-51
3.29989e-51
-6.81619e-51
-9.87447e-52
1.12345e-49
-8.00459e-49
4.07099e-48
-1.72192e-47
6.29886e-47
-1.99999e-46
5.39073e-46
-1.15109e-45
1.49749e-45
1.41276e-45
-1.65542e-44
5.92823e-44
-1.25434e-43
8.64219e-44
5.10842e-43
-2.38369e-42
4.81791e-42
-4.34185e-43
-2.92697e-41
8.99827e-41
-7.29942e-41
-3.58915e-40
1.36582e-39
-1.13013e-39
-5.63098e-39
1.88204e-38
-4.564e-39
-1.01617e-37
2.0302e-37
2.59134e-37
-1.53722e-36
5.84053e-37
7.9063e-36
-1.16529e-35
-3.26273e-35
8.95011e-35
1.16662e-34
-5.40762e-34
-4.01876e-34
2.94603e-33
1.68571e-33
-1.51764e-32
-1.04808e-32
7.39188e-32
8.07262e-32
-3.23958e-31
-6.02489e-31
1.10343e-30
3.8699e-30
-1.25761e-30
-1.95138e-29
-1.90436e-29
6.22006e-29
1.80015e-28
2.02845e-29
-7.48756e-28
-1.49545e-27
1.67914e-28
6.54583e-27
1.39022e-26
6.50169e-27
-3.80958e-26
-1.21894e-25
-1.83089e-25
-6.76997e-26
4.40424e-25
1.5124e-24
3.12922e-24
4.99044e-24
6.56468e-24
7.29351e-24
6.8555e-24
5.34019e-24
3.22278e-24
1.14861e-24
-3.49997e-25
-1.05012e-24
-1.05951e-24
-6.84742e-25
-2.46634e-25
5.27692e-26
1.63479e-25
1.4008e-25
6.7463e-26
6.95412e-27
-2.00001e-26
-2.04082e-26
-1.03077e-26
-1.277e-27
2.4856e-27
1.4479e-53
-6.10155e-54
6.91783e-53
-2.78354e-52
1.16021e-51
-4.44351e-51
1.5516e-50
-4.71561e-50
1.10343e-49
-8.96589e-50
-1.01155e-48
8.57877e-48
-4.60334e-47
1.99951e-46
-7.4351e-46
2.38878e-45
-6.50351e-45
1.40434e-44
-1.87206e-44
-1.53953e-44
1.97433e-43
-7.17035e-43
1.53441e-42
-1.10557e-42
-6.08157e-42
2.88834e-41
-5.90213e-41
7.15115e-42
3.53114e-40
-1.09717e-39
9.10797e-40
4.325e-39
-1.66454e-38
1.40339e-38
6.80898e-38
-2.29688e-37
5.89252e-38
1.23459e-36
-2.48471e-36
-3.12512e-36
1.87429e-35
-7.28014e-36
-9.62372e-35
1.42625e-34
3.9672e-34
-1.09272e-33
-1.41759e-33
6.59624e-33
4.88481e-33
-3.59219e-32
-2.05363e-32
1.85002e-31
1.28008e-31
-9.0068e-31
-9.86573e-31
3.94334e-30
7.35851e-30
-1.33953e-29
-4.72031e-29
1.49431e-29
2.37501e-28
2.33831e-28
-7.53308e-28
-2.19487e-27
-2.74626e-28
9.07399e-27
1.8254e-26
-1.72329e-27
-7.91296e-26
-1.69329e-25
-8.20024e-26
4.56068e-25
1.47391e-24
2.23185e-24
8.76345e-25
-5.20097e-24
-1.80711e-23
-3.75154e-23
-5.99203e-23
-7.88828e-23
-8.76688e-23
-8.24006e-23
-6.41558e-23
-3.86636e-23
-1.37033e-23
4.31177e-24
1.27021e-23
1.27759e-23
8.23492e-24
2.94711e-24
-6.56778e-25
-1.9813e-24
-1.69041e-24
-8.10301e-25
-8.0055e-26
2.43559e-25
2.46816e-25
1.24023e-25
1.48607e-26
-3.02402e-26
-1.77671e-52
7.70595e-53
-8.6071e-52
3.49141e-51
-1.46728e-50
5.69002e-50
-2.02616e-49
6.38232e-49
-1.62917e-48
2.30202e-48
7.46143e-48
-8.61123e-47
4.95696e-46
-2.22262e-45
8.42077e-45
-2.74107e-44
7.54414e-44
-1.64852e-43
2.25314e-43
1.58047e-43
-2.26182e-42
8.34059e-42
-1.8063e-41
1.36099e-41
6.95313e-41
-3.36622e-40
6.95847e-40
-1.06847e-40
-4.09606e-39
1.28721e-38
-1.09425e-38
-5.01066e-38
1.95185e-37
-1.67797e-37
-7.91785e-37
2.69734e-36
-7.31969e-37
-1.44294e-35
2.92664e-35
3.62354e-35
-2.19891e-34
8.73902e-35
1.12703e-33
-1.68009e-33
-4.64063e-33
1.28381e-32
1.65703e-32
-7.74242e-32
-5.71158e-32
4.21467e-31
2.4069e-31
-2.17001e-30
-1.50435e-30
1.05598e-29
1.16025e-29
-4.61839e-29
-8.64847e-29
1.56442e-28
5.54028e-28
-1.70521e-28
-2.78122e-27
-2.76352e-27
8.77544e-27
2.57511e-26
3.55875e-27
-1.05776e-25
-2.14415e-25
1.62154e-26
9.19958e-25
1.98446e-24
9.95853e-25
-5.2466e-24
-1.71405e-23
-2.61792e-23
-1.09124e-23
5.8927e-23
2.07446e-22
4.32243e-22
6.91536e-22
9.11141e-22
1.01298e-21
9.52068e-22
7.40872e-22
4.45807e-22
1.5704e-22
-5.11372e-23
-1.47767e-22
-1.48129e-22
-9.52051e-23
-3.38337e-23
7.87123e-24
2.30974e-23
1.96154e-23
9.35511e-24
8.80639e-25
-2.85386e-24
-2.87081e-24
-1.43459e-24
-1.65575e-25
3.53976e-25
2.09404e-51
-9.3305e-52
1.02785e-50
-4.20084e-50
1.77874e-49
-6.97516e-49
2.52638e-48
-8.19649e-48
2.2314e-47
-4.07213e-47
-3.19777e-47
7.98482e-46
-5.06106e-45
2.35888e-44
-9.13189e-44
3.0162e-43
-8.40009e-43
1.85889e-42
-2.60651e-42
-1.51345e-42
2.48433e-41
-9.31437e-41
2.04287e-40
-1.6097e-40
-7.61995e-40
3.76699e-39
-7.88246e-39
1.47708e-39
4.56062e-38
-1.45066e-37
1.26381e-37
5.57135e-37
-2.19852e-36
1.92863e-36
8.83927e-36
-3.04303e-35
8.735e-36
1.61964e-34
-3.31219e-34
-4.03244e-34
2.47819e-33
-1.00865e-33
-1.26775e-32
1.90168e-32
5.21355e-32
-1.44909e-31
-1.86013e-31
8.73045e-31
6.41334e-31
-4.75048e-30
-2.70936e-30
2.44519e-29
1.69831e-29
-1.18933e-28
-1.31089e-28
5.19584e-28
9.76531e-28
-1.75481e-27
-6.24699e-27
1.8653e-27
3.1285e-26
3.13857e-26
-9.81653e-26
-2.90241e-25
-4.41056e-26
1.1841e-24
2.41968e-24
-1.35184e-25
-1.02688e-23
-2.23413e-23
-1.16264e-23
5.78948e-23
1.91382e-22
2.95003e-22
1.30516e-22
-6.39221e-22
-2.28365e-21
-4.77765e-21
-7.65759e-21
-1.00986e-20
-1.12316e-20
-1.05557e-20
-8.20941e-21
-4.93163e-21
-1.72553e-21
5.82926e-22
1.6505e-21
1.64857e-21
1.05626e-21
3.72489e-22
-9.0691e-23
-2.5857e-22
-2.185e-22
-1.03635e-22
-9.22772e-24
3.21223e-23
3.206e-23
1.59253e-23
1.76168e-24
-3.97998e-24
-2.36626e-50
1.08142e-50
-1.17608e-49
4.84045e-49
-2.06374e-48
8.17448e-48
-3.00527e-47
9.99498e-47
-2.85967e-46
6.07736e-46
-2.46126e-46
-6.67457e-45
4.87185e-44
-2.38298e-43
9.46031e-43
-3.17624e-42
8.96079e-42
-2.00984e-41
2.89313e-41
1.33047e-41
-2.6108e-40
9.96772e-40
-2.21574e-39
1.826e-39
7.98749e-39
-4.04016e-38
8.56399e-38
-1.90803e-38
-4.86474e-37
1.5676e-36
-1.40072e-36
-5.93401e-36
2.37443e-35
-2.12723e-35
-9.45569e-35
3.29207e-34
-9.99742e-35
-1.74275e-33
3.59531e-33
4.29867e-33
-2.67812e-32
1.11745e-32
1.36723e-31
-2.06464e-31
-5.61513e-31
1.56863e-30
2.00164e-30
-9.44055e-30
-6.90281e-30
5.13454e-29
2.92377e-29
-2.6421e-28
-1.83843e-28
1.28447e-27
1.42034e-27
-5.60503e-27
-1.05743e-26
1.88709e-26
6.75474e-26
-1.95191e-26
-3.3743e-25
-3.41929e-25
1.05256e-24
3.13701e-24
5.22226e-25
-1.27057e-23
-2.61873e-23
9.17861e-25
1.09847e-22
2.41184e-22
1.30264e-22
-6.11576e-22
-2.04787e-21
-3.18787e-21
-1.4969e-21
6.62322e-21
2.40588e-20
5.05604e-20
8.12007e-20
1.07192e-19
1.19269e-19
1.12086e-19
8.71163e-20
5.22372e-20
1.81408e-20
-6.37567e-21
-1.76678e-20
-1.7578e-20
-1.12241e-20
-3.92468e-21
1.00283e-21
2.77457e-21
2.33205e-21
1.09946e-21
9.17484e-23
-3.46693e-22
-3.43121e-22
-1.69335e-22
-1.78451e-23
4.29064e-23
2.5585e-49
-1.1976e-49
1.2869e-48
-5.3314e-48
2.28755e-47
-9.1439e-47
3.40634e-46
-1.1571e-45
3.44431e-45
-8.1077e-45
8.98219e-45
4.7749e-44
-4.3873e-43
2.28317e-42
-9.33784e-42
3.19372e-41
-9.13869e-41
2.07945e-40
-3.07509e-40
-1.04274e-40
2.61908e-39
-1.02006e-38
2.30014e-38
-1.98286e-38
-7.98958e-38
4.14442e-37
-8.90629e-37
2.31488e-37
4.96089e-36
-1.62104e-35
1.48694e-35
6.04135e-35
-2.45395e-34
2.2472e-34
9.67237e-34
-3.40847e-33
1.09539e-33
1.79398e-32
-3.7358e-32
-4.38032e-32
2.7697e-31
-1.18608e-31
-1.4109e-30
2.14587e-30
5.78599e-30
-1.62524e-29
-2.06051e-29
9.77012e-29
7.10708e-29
-5.31125e-28
-3.01858e-28
2.7322e-27
1.90443e-27
-1.3276e-26
-1.47288e-26
5.78627e-26
1.09591e-25
-1.94169e-25
-6.99017e-25
1.94948e-25
3.48274e-24
3.56638e-24
-1.07958e-23
-3.245e-23
-5.89913e-24
1.30422e-22
2.71267e-22
-3.54732e-24
-1.12379e-21
-2.49176e-21
-1.39798e-21
6.17092e-21
2.09575e-20
3.29702e-20
1.64328e-20
-6.53733e-20
-2.42019e-19
-5.11169e-19
-8.22772e-19
-1.08734e-18
-1.21041e-18
-1.13744e-18
-8.83431e-19
-5.28653e-19
-1.8206e-19
6.67789e-20
1.80879e-19
1.79193e-19
1.13994e-19
3.94855e-20
-1.0622e-20
-2.848e-20
-2.37987e-20
-1.11463e-20
-8.6138e-22
3.58087e-21
3.5121e-21
1.72103e-21
1.71473e-22
-4.42626e-22
-2.64113e-48
1.26466e-48
-1.34375e-47
5.6013e-47
-2.41754e-46
9.74417e-46
-3.67299e-45
1.27068e-44
-3.90675e-44
9.90021e-44
-1.55643e-43
-2.50018e-43
3.65402e-42
-2.06554e-41
8.75542e-41
-3.05847e-40
8.8896e-40
-2.05419e-39
3.12311e-39
6.81551e-40
-2.50152e-38
9.95955e-38
-2.2803e-37
2.05681e-37
7.60549e-37
-4.05694e-36
8.84653e-36
-2.64424e-36
-4.82507e-35
1.60058e-34
-1.5086e-34
-5.86527e-34
2.42151e-33
-2.26886e-33
-9.4391e-33
3.36995e-32
-1.14662e-32
-1.76276e-31
3.70776e-31
4.25646e-31
-2.73517e-30
1.20361e-30
1.39003e-29
-2.13049e-29
-5.69132e-29
1.6082e-28
2.02452e-28
-9.65596e-28
-6.98372e-28
5.24652e-27
2.97479e-27
-2.69806e-26
-1.88365e-26
1.31033e-25
1.45858e-25
-5.70383e-25
-1.08469e-24
1.90738e-24
6.90807e-24
-1.85362e-24
-3.43235e-23
-3.55358e-23
1.05686e-22
3.20556e-22
6.34673e-23
-1.27783e-21
-2.68371e-21
-2.72592e-23
1.09706e-20