/*--------------------------------*- C++ -*----------------------------------*\
  =========                 |
  \\      /  F ield         | OpenFOAM: The Open Source CFD Toolbox
   \\    /   O peration     | Website:  https://openfoam.org
    \\  /    A nd           | Version:  13
     \\/     M anipulation  |
\*---------------------------------------------------------------------------*/
FoamFile
{
    format      ascii;
    class       volScalarField;
    location    "7";
    object      T;
}
// * * * * * * * * * * * * * * * * * * * * * * * * * * * * * * * * * * * * * //

dimensions      [0 0 0 1 0 0 0];

internalField   nonuniform List<scalar> 
10000
(
-1.38186e-50
-1.80743e-49
-2.07865e-49
1.68918e-48
6.22128e-48
-4.42762e-48
-7.04987e-47
-8.9641e-47
4.98257e-46
1.69601e-45
-1.58723e-45
-1.7852e-44
-1.64956e-44
1.26746e-43
3.59341e-43
-4.43006e-43
-3.74712e-42
-3.01304e-42
2.45087e-41
6.7545e-41
-6.55993e-41
-6.26938e-40
-6.70345e-40
3.27477e-39
1.08493e-38
-2.18409e-39
-7.75177e-38
-1.34024e-37
2.43181e-37
1.32323e-36
1.0939e-36
-5.85254e-36
-1.81977e-35
-2.83485e-36
9.72911e-35
2.15755e-34
-7.83653e-35
-1.3037e-33
-2.35063e-33
1.55451e-33
1.4905e-32
2.49016e-32
-1.52693e-32
-1.47581e-31
-2.61041e-31
5.46122e-32
1.23115e-30
2.59238e-30
1.02239e-30
-7.80201e-30
-2.22249e-29
-2.35174e-29
2.45309e-29
1.41969e-28
2.59531e-28
1.59101e-28
-4.5094e-28
-1.61583e-27
-2.64224e-27
-1.82675e-27
2.98255e-27
1.26136e-26
2.40532e-26
2.87349e-26
1.36388e-26
-3.3762e-26
-1.18021e-25
-2.29443e-25
-3.4339e-25
-4.27309e-25
-4.53329e-25
-4.10552e-25
-3.10538e-25
-1.82819e-25
-6.26402e-26
2.28134e-26
6.30439e-26
6.44505e-26
4.35533e-26
1.78461e-26
-1.00097e-27
-9.25394e-27
-9.15217e-27
-5.23581e-27
-1.29946e-27
8.98394e-28
1.36233e-27
8.98833e-28
2.78884e-28
-1.20924e-28
-2.71026e-28
-2.86113e-28
-2.68172e-28
-2.58175e-28
-2.57389e-28
-2.58585e-28
-2.58943e-28
-2.58857e-28
-2.58814e-28
-2.58818e-28
-2.33826e-49
4.07767e-49
2.84543e-48
7.09364e-50
-2.70723e-47
-3.96676e-47
2.04867e-46
7.11599e-46
-7.92494e-46
-8.03147e-45
-6.47777e-45
6.11954e-44
1.64381e-43
-2.3959e-43
-1.82131e-42
-1.27313e-42
1.25565e-41
3.30841e-41
-3.75767e-41
-3.23895e-40
-3.23387e-40
1.77778e-39
5.72212e-39
-1.57657e-39
-4.26835e-38
-7.2828e-38
1.39471e-37
7.51012e-37
6.2396e-37
-3.40521e-36
-1.07787e-35
-2.02805e-36
5.85696e-35
1.35188e-34
-3.83909e-35
-8.20024e-34
-1.57893e-33
8.08625e-34
9.85036e-33
1.80551e-32
-7.14734e-33
-1.02463e-31
-2.03534e-31
-8.2019e-33
8.87628e-31
2.1503e-30
1.39433e-30
-5.56042e-30
-1.93135e-29
-2.57471e-29
1.06044e-29
1.2445e-28
2.7782e-28
2.64025e-28
-2.96639e-28
-1.68708e-27
-3.45555e-27
-3.66108e-27
1.23354e-27
1.47553e-26
3.64776e-26
5.65685e-26
5.16394e-26
-1.40724e-26
-1.7919e-25
-4.68132e-25
-8.72445e-25
-1.34002e-24
-1.7806e-24
-2.08956e-24
-2.1827e-24
-2.02779e-24
-1.65852e-24
-1.16374e-24
-6.56408e-25
-2.35836e-25
4.08068e-26
1.67545e-25
1.78806e-25
1.2709e-25
6.06083e-26
9.62814e-27
-1.58917e-26
-2.03815e-26
-1.39527e-26
-5.54071e-27
1.19336e-28
2.21028e-27
1.99413e-27
1.03425e-27
2.70587e-28
-6.66636e-29
-1.25492e-28
-9.8436e-29
-7.87092e-29
-7.63637e-29
-7.84013e-29
-7.90195e-29
-7.88853e-29
-7.88391e-29
-3.24901e-49
2.49183e-48
7.03266e-48
-1.61027e-47
-1.03192e-46
-9.95862e-48
1.02559e-45
1.86275e-45
-6.65234e-45
-2.89007e-44
1.1742e-44
2.81119e-43
3.79394e-43
-1.79119e-42
-6.35405e-42
3.91109e-42
5.91937e-41
7.3516e-41
-3.37089e-40
-1.17845e-39
4.20737e-40
9.54766e-39
1.45622e-38
-4.1078e-38
-1.7886e-37
-5.71832e-38
1.08854e-36
2.46713e-36
-2.19347e-36
-1.97525e-35
-2.55069e-35
6.76304e-35
2.85136e-34
1.90147e-34
-1.20648e-33
-3.52569e-33
-8.93668e-34
1.64974e-32
3.94747e-32
2.40652e-33
-1.86088e-31
-4.15991e-31
-5.44013e-32
1.75012e-30
4.14422e-30
1.8501e-30
-1.30529e-29
-3.7371e-29
-3.46741e-29
6.29896e-29
2.77208e-28
4.25304e-28
3.16331e-29
-1.38367e-27
-3.43845e-27
-3.86462e-27
1.33874e-27
1.49767e-26
3.2922e-26
3.90067e-26
7.10384e-27
-8.41398e-26
-2.26189e-25
-3.58865e-25
-3.72328e-25
-1.45992e-25
3.84272e-25
1.16407e-24
2.00574e-24
2.6441e-24
2.84575e-24
2.51837e-24
1.75988e-24
8.17831e-25
-2.02308e-26
-5.46552e-25
-7.02722e-25
-5.71714e-25
-3.09899e-25
-6.4241e-26
8.25698e-26
1.21368e-25
9.04117e-26
3.85683e-26
-7.90088e-28
-1.71491e-26
-1.60786e-26
-8.12662e-27
-9.98926e-28
2.64266e-27
3.5406e-27
3.32788e-27
3.04601e-27
2.95852e-27
2.97211e-27
2.98907e-27
2.99096e-27
2.98922e-27
2.98887e-27
2.98897e-27
1.62787e-48
-8.11935e-49
-1.76817e-47
-2.22928e-47
1.23663e-46
3.98738e-46
-5.14721e-46
-4.54621e-45
-2.72671e-45
3.74371e-44
8.99488e-44
-1.7842e-43
-1.1188e-42
-4.82483e-43
8.69508e-42
2.02636e-41
-3.36684e-41
-2.28236e-40
-1.69636e-40
1.4543e-39
4.13638e-39
-2.8033e-39
-3.60965e-38
-5.19174e-38
1.51796e-37
6.71035e-37
3.39467e-37
-3.79834e-36
-1.01654e-35
3.08085e-36
7.07802e-35
1.32487e-34
-1.4335e-34
-1.0993e-33
-1.57822e-33
2.7718e-33
1.49847e-32
1.85643e-32
-3.79493e-32
-1.83716e-31
-2.29334e-31
3.85245e-31
2.02202e-30
2.93346e-30
-2.45126e-30
-1.92448e-29
-3.56226e-29
-3.20476e-30
1.43215e-28
3.6792e-28
3.39969e-28
-5.93949e-28
-2.81149e-27
-4.95942e-27
-2.51216e-27
1.11025e-26
3.76967e-26
6.18483e-26
4.05681e-26
-8.84191e-26
-3.62841e-25
-7.16241e-25
-8.95069e-25
-4.35934e-25
1.23353e-24
4.55712e-24
9.55083e-24
1.55929e-23
2.14568e-23
2.5645e-23
2.69203e-23
2.48049e-23
1.98021e-23
1.32204e-23
6.67884e-24
1.52816e-24
-1.55302e-24
-2.63765e-24
-2.33011e-24
-1.4044e-24
-4.87078e-25
9.73561e-26
3.08657e-25
2.70969e-25
1.41628e-25
2.9074e-26
-2.71811e-26
-3.57739e-26
-2.20558e-26
-6.33825e-27
2.94163e-27
6.05741e-27
6.20623e-27
5.78763e-27
5.60717e-27
5.61046e-27
5.63441e-27
5.63794e-27
5.63601e-27
5.63569e-27
6.67308e-48
-2.72062e-47
-1.06707e-46
1.15209e-46
1.26276e-45
8.54693e-46
-1.11233e-44
-2.66905e-44
6.17811e-44
3.54757e-43
3.54696e-44
-3.13973e-42
-5.73127e-42
1.72924e-41
7.90224e-41
-5.188e-42
-6.561e-40
-1.13122e-39
3.12358e-39
1.4392e-38
2.74734e-39
-1.01402e-37
-2.085e-37
3.2825e-37
2.06823e-36
1.71311e-36
-1.0456e-35
-3.14197e-35
5.04731e-36
2.05402e-34
3.78228e-34
-4.61358e-34
-3.13259e-33
-3.78753e-33
9.55718e-33
4.04252e-32
3.44198e-32
-1.35778e-31
-4.64285e-31
-3.35284e-31
1.49779e-30
4.8674e-30
3.97172e-30
-1.27737e-29
-4.61413e-29
-5.1288e-29
7.20493e-29
3.73289e-28
5.93437e-28
-1.65475e-29
-2.23472e-27
-5.31353e-27
-5.07031e-27
5.64469e-27
3.06024e-26
5.79147e-26
5.00885e-26
-4.73498e-26
-2.65149e-25
-5.44555e-25
-6.84407e-25
-3.56065e-25
7.81892e-25
2.90142e-24
5.85471e-24
9.16771e-24
1.22164e-23
1.4502e-23
1.58569e-23
1.64428e-23
1.65402e-23
1.62819e-23
1.55267e-23
1.39746e-23
1.1442e-23
8.09906e-24
4.49522e-24
1.34559e-24
-7.85448e-25
-1.71325e-24
-1.65515e-24
-1.06431e-24
-3.95523e-25
6.56502e-26
2.46288e-25
2.22456e-25
1.16974e-25
2.2046e-26
-2.70018e-26
-3.7405e-26
-3.08751e-26
-2.34789e-26
-2.03759e-26
-2.01951e-26
-2.06363e-26
-2.08024e-26
-2.07812e-26
-2.07576e-26
-2.07573e-26
-2.07589e-26
-2.73518e-48
-3.51566e-47
-1.16761e-47
3.73089e-46
8.0526e-46
-2.48204e-45
-1.26626e-44
2.58107e-45
1.28825e-43
2.00288e-43
-8.67236e-43
-3.37361e-42
1.99418e-42
3.37273e-41
4.21285e-41
-2.16519e-40
-7.45965e-40
4.54973e-40
6.92209e-39
9.05693e-39
-3.75951e-38
-1.39681e-37
2.12174e-38
1.07114e-36
1.88724e-36
-3.95842e-36
-2.07398e-35
-1.3617e-35
1.10895e-34
3.08488e-34
-8.73951e-35
-2.09393e-33
-3.7326e-33
4.77701e-33
3.15881e-32
3.89336e-32
-9.31402e-32
-4.09451e-31
-3.86475e-31
1.28052e-30
4.75538e-30
4.18382e-30
-1.35854e-29
-5.02353e-29
-5.16696e-29
1.06681e-28
4.72444e-28
6.47073e-28
-4.42025e-28
-3.67379e-27
-7.05233e-27
-2.88251e-27
1.94566e-26
5.83616e-26
7.53327e-26
-1.41079e-26
-2.89608e-25
-6.88777e-25
-8.38382e-25
-2.77779e-26
2.44631e-24
6.47118e-24
1.01138e-23
9.09783e-24
-2.44996e-24
-2.96733e-23
-7.3754e-23
-1.29396e-22
-1.84814e-22
-2.25017e-22
-2.37382e-22
-2.16998e-22
-1.69048e-22
-1.06892e-22
-4.67525e-23
-1.62701e-24
2.27179e-23
2.81791e-23
2.16309e-23
1.09895e-23
2.05888e-24
-2.71682e-24
-3.69217e-24
-2.55977e-24
-9.88148e-25
8.08728e-26
4.60877e-25
3.88901e-25
1.72825e-25
7.76992e-28
-7.99194e-26
-9.84412e-26
-9.47957e-26
-9.03716e-26
-8.93195e-26
-8.96256e-26
-8.98267e-26
-8.98227e-26
-8.98032e-26
-8.98027e-26
-6.81076e-47
2.15459e-46
1.03347e-45
-5.43165e-46
-1.12355e-44
-1.28476e-44
8.88116e-44
2.7128e-43
-3.85816e-43
-3.17763e-42
-1.90227e-42
2.52288e-41
6.05325e-41
-1.12074e-40
-7.1062e-40
-3.31134e-40
5.19914e-39
1.20326e-38
-1.88221e-38
-1.26889e-37
-9.3187e-38
7.60965e-37
2.10405e-36
-1.38405e-36
-1.72051e-35
-2.38579e-35
6.7528e-35
2.87514e-34
1.42218e-34
-1.49933e-33
-3.89478e-33
9.484e-34
2.45538e-32
4.57062e-32
-4.01165e-32
-3.32767e-31
-5.00474e-31
6.38769e-31
3.92526e-30
5.50905e-30
-6.64829e-30
-4.0912e-29
-6.24611e-29
4.0241e-29
3.67189e-28
6.88219e-28
9.49138e-29
-2.57939e-27
-6.60544e-27
-6.0899e-27
1.00339e-26
4.74692e-26
8.30163e-26
4.3483e-26
-1.73584e-25
-5.94235e-25
-9.8405e-25
-7.0088e-25
1.18961e-24
5.31068e-24
1.08707e-23
1.44442e-23
9.40725e-24
-1.31485e-23
-6.16729e-23
-1.40167e-22
-2.44467e-22
-3.60721e-22
-4.67403e-22
-5.40838e-22
-5.62528e-22
-5.25531e-22
-4.37225e-22
-3.17195e-22
-1.90978e-22
-8.21392e-23
-5.76991e-24
3.43197e-23
4.41805e-23
3.53408e-23
1.9713e-23
5.86217e-24
-2.3461e-24
-4.96268e-24
-4.0849e-24
-2.04748e-24
-3.7064e-25
4.40047e-25
5.56996e-25
3.68695e-25
1.68277e-25
6.43273e-26
3.99941e-26
4.56895e-26
5.18024e-26
5.2918e-26
5.23695e-26
5.21445e-26
5.2175e-26
5.2191e-26
-9.25147e-47
7.10347e-46
1.88357e-45
-4.47926e-45
-2.66603e-44
2.22331e-45
2.70288e-43
4.27249e-43
-1.88824e-42
-7.2204e-42
5.26256e-42
7.46547e-41
8.10993e-41
-5.13885e-40
-1.58981e-39
1.55163e-39
1.58821e-38
1.56044e-38
-9.83823e-38
-2.98895e-37
2.08638e-37
2.61833e-36
3.30077e-36
-1.26545e-35
-4.69146e-35
-1.61935e-36
3.12719e-34
6.11518e-34
-8.30111e-34
-5.4761e-33
-5.67711e-33
2.17112e-32
7.69825e-32
3.07564e-32
-3.70301e-31
-9.31619e-31
5.23802e-32
4.99448e-30
1.02958e-29
-2.99089e-30
-5.66655e-29
-1.0885e-28
2.46608e-29
5.47682e-28
1.11229e-27
1.42161e-28
-4.34836e-27
-1.05271e-26
-6.94041e-27
2.47365e-26
8.41854e-26
1.07766e-25
-4.4864e-26
-4.82266e-25
-1.0115e-24
-8.73013e-25
1.08796e-24
5.36664e-24
9.99888e-24
9.28653e-24
-4.79899e-24
-3.70039e-23
-8.02144e-23
-1.08943e-22
-8.17647e-23
4.33663e-23
2.84734e-22
6.15573e-22
9.60549e-22
1.21755e-21
1.29815e-21
1.16751e-21
8.62302e-22
4.76074e-22
1.19453e-22
-1.24167e-22
-2.25641e-22
-2.09419e-22
-1.30477e-22
-4.4405e-23
1.39019e-23
3.57647e-23
3.11048e-23
1.59083e-23
2.46423e-24
-4.23971e-24
-5.00877e-24
-2.95104e-24
-6.99322e-25
6.16991e-25
1.04465e-24
1.04474e-24
9.68914e-25
9.36507e-25
9.36852e-25
9.41648e-25
9.42632e-25
9.42213e-25
9.4208e-25
9.42101e-25
4.76561e-46
-8.50041e-46
-6.62385e-45
-2.36411e-45
6.24641e-44
1.2867e-43
-3.89044e-43
-1.89417e-42
4.05989e-43
1.82171e-41
2.80491e-41
-1.13499e-40
-4.47308e-40
1.79278e-40
4.11033e-39
5.98837e-39
-2.25212e-38
-8.9599e-38
9.294e-39
7.06752e-37
1.27349e-36
-2.78384e-36
-1.46203e-35
-8.77205e-36
8.45427e-35
2.28094e-34
-1.07411e-34
-1.71284e-33
-2.81651e-33
4.95471e-33
2.76962e-32
2.84464e-32
-1.03218e-31
-3.86393e-31
-2.52827e-31
1.59116e-30
4.8915e-30
2.4524e-30
-1.99455e-29
-5.78631e-29
-3.33683e-29
2.05046e-28
6.38844e-28
5.50188e-28
-1.60752e-27
-6.32006e-27
-8.30313e-27
6.66642e-27
5.10748e-26
9.99134e-26
4.74233e-26
-2.68286e-25
-8.64212e-25
-1.22911e-24
-6.52772e-26
4.15618e-24
1.11615e-23
1.57036e-23
5.62885e-24
-3.45542e-23
-1.10869e-22
-1.98917e-22
-2.24148e-22
-5.96002e-23
4.4405e-22
1.39506e-21
2.78463e-21
4.4369e-21
6.02215e-21
7.14563e-21
7.4846e-21
6.91538e-21
5.56939e-21
3.78857e-21
1.9995e-21
5.64334e-22
-3.25797e-22
-6.76137e-22
-6.36144e-22
-4.07934e-22
-1.62456e-22
4.94939e-24
7.45199e-23
7.362e-23
4.27023e-23
1.2185e-23
-4.93988e-24
-9.1288e-24
-6.44013e-24
-2.44352e-24
1.70867e-25
1.15351e-24
1.2558e-24
1.14737e-24
1.09015e-24
1.08769e-24
1.09453e-24
1.09595e-24
1.09544e-24
1.09532e-24
1.65234e-45
-8.14255e-45
-2.88495e-44
3.80835e-44
3.56036e-43
2.00546e-43
-3.18219e-42
-7.23302e-42
1.81998e-41
9.8294e-41
-4.7783e-43
-8.87002e-40
-1.52043e-39
5.0715e-39
2.18005e-38
-4.08731e-39
-1.85922e-37
-2.98753e-37
9.27476e-37
3.98567e-36
2.6116e-37
-2.90436e-35
-5.57598e-35
1.02041e-34
5.80094e-34
4.08386e-34
-3.07989e-33
-8.61571e-33
2.8207e-33
5.92325e-32
1.00374e-31
-1.5174e-31
-8.90676e-31
-9.5266e-31
2.98835e-30
1.1371e-29
7.98178e-30
-4.19497e-29
-1.29767e-28
-7.25807e-29
4.66223e-28
1.36205e-27
8.79641e-28
-4.1103e-27
-1.30742e-26
-1.22819e-26
2.57957e-26
1.08915e-25
1.52876e-25
-5.51669e-26
-6.96033e-25
-1.46276e-24
-1.08749e-24
2.32238e-24
9.24018e-24
1.53033e-23
9.3592e-24
-2.23029e-23
-8.2679e-23
-1.46053e-22
-1.48672e-22
-4.14671e-24
3.51611e-22
9.04088e-22
1.53033e-21
2.03004e-21
2.2187e-21
2.03721e-21
1.60768e-21
1.18667e-21
1.02986e-21
1.24439e-21
1.72079e-21
2.19005e-21
2.37239e-21
2.12718e-21
1.5172e-21
7.58742e-22
9.94491e-23
-2.98711e-22
-4.10592e-22
-3.21658e-22
-1.578e-22
-1.90499e-23
5.13952e-23
6.03074e-23
3.76766e-23
1.14041e-23
-4.7204e-24
-9.93775e-24
-9.34902e-24
-7.64454e-24
-6.76697e-24
-6.65595e-24
-6.75843e-24
-6.807e-24
-6.80421e-24
-6.79787e-24
-6.79753e-24
-6.79793e-24
-1.58956e-45
-6.40806e-45
1.18604e-44
8.97315e-44
3.44296e-44
-8.67693e-43
-1.89743e-42
5.27095e-42
2.80286e-41
-5.68431e-43
-2.66622e-40
-4.76219e-40
1.57731e-39
7.16414e-39
-7.93125e-40
-6.36606e-38
-1.11547e-37
3.23818e-37
1.5247e-36
2.82226e-37
-1.14927e-35
-2.4239e-35
4.02934e-35
2.58419e-34
2.12948e-34
-1.42164e-33
-4.31037e-33
1.08687e-33
3.10168e-32
5.58999e-32
-8.41688e-32
-5.23849e-31
-5.73953e-31
1.93491e-30
7.45278e-30
4.80913e-30
-3.13677e-29
-9.43031e-29
-3.86113e-29
4.07014e-28
1.10221e-27
4.47095e-28
-4.3452e-27
-1.20425e-26
-7.61213e-27
3.67454e-26
1.19692e-25
1.24865e-25
-2.04558e-25
-1.003e-24
-1.61679e-24
-5.42676e-26
5.99323e-24
1.51059e-23
1.63301e-23
-1.15886e-23
-8.51183e-23
-1.80101e-22
-1.91791e-22
6.34107e-23
7.48165e-22
1.78909e-21
2.62281e-21
2.08044e-21
-1.39184e-21
-9.10827e-21
-2.13015e-20
-3.64865e-20
-5.14863e-20
-6.23116e-20
-6.56241e-20
-6.01304e-20
-4.7201e-20
-3.03713e-20
-1.39564e-20
-1.45468e-21
5.52035e-21
7.38341e-21
5.90076e-21
3.16732e-21
7.65205e-22
-5.92118e-22
-9.40496e-22
-6.96409e-22
-2.97798e-22
-7.36649e-24
1.08669e-22
1.0181e-22
5.01289e-23
5.17384e-24
-1.7438e-23
-2.34189e-23
-2.28526e-23
-2.16846e-23
-2.13417e-23
-2.14019e-23
-2.1459e-23
-2.14611e-23
-2.14559e-23
-2.14555e-23
-1.76414e-44
6.19188e-44
2.81118e-43
-1.82419e-43
-3.14911e-42
-3.37509e-42
2.52702e-41
7.47513e-41
-1.13474e-40
-8.87346e-40
-4.76969e-40
7.13883e-39
1.65542e-38
-3.28151e-38
-1.97998e-37
-7.77773e-38
1.47559e-36
3.27599e-36
-5.62138e-36
-3.54259e-35
-2.29863e-35
2.18334e-34
5.74869e-34
-4.56788e-34
-4.84721e-33
-6.22386e-33
2.00504e-32
7.95811e-32
2.99503e-32
-4.33986e-31
-1.05438e-30
4.33847e-31
7.00192e-30
1.2024e-29
-1.36655e-29
-9.38685e-29
-1.27589e-28
2.1039e-28
1.09999e-27
1.37504e-27
-2.24442e-27
-1.14694e-26
-1.56082e-26
1.56914e-26
1.04201e-25
1.75451e-25
-2.06924e-26
-7.59427e-25
-1.73616e-24
-1.27279e-24
3.4096e-24
1.30583e-23
2.03342e-23
5.71611e-24
-5.43247e-23
-1.57936e-22
-2.33788e-22
-1.16162e-22
4.0586e-22
1.42347e-21
2.6491e-21
3.17754e-21
1.44467e-21
-4.46832e-21
-1.61793e-20
-3.41894e-20
-5.72445e-20
-8.22078e-20
-1.04608e-19
-1.19764e-19
-1.24129e-19
-1.1641e-19
-9.80295e-20
-7.27694e-20
-4.56722e-20
-2.15972e-20
-3.9272e-21
6.1274e-21
9.43898e-21
8.22202e-21
5.01963e-21
1.84628e-21
-2.3248e-22
-1.04893e-21
-9.82441e-22
-5.5367e-22
-1.47475e-22
7.61207e-23
1.30182e-22
9.81982e-23
5.32859e-23
2.7511e-23
2.06302e-23
2.16819e-23
2.32026e-23
2.35329e-23
2.34077e-23
2.33472e-23
2.33533e-23
2.33575e-23
-1.5961e-44
1.65597e-43
3.78178e-43
-1.12811e-42
-5.74671e-42
2.0036e-42
6.06256e-41
8.12758e-41
-4.47274e-40
-1.52105e-39
1.57545e-39
1.65513e-38
1.43071e-38
-1.20682e-37
-3.33433e-37
4.3606e-37
3.53617e-36
2.74482e-36
-2.3278e-35
-6.34918e-35
6.2748e-35
5.91484e-34
6.31927e-34
-3.08042e-33
-1.02381e-32
1.87103e-33
7.27045e-32
1.27568e-31
-2.22394e-31
-1.24196e-30
-1.07675e-30
5.36498e-30
1.71417e-29
3.74333e-30
-8.91227e-29
-2.04475e-28
5.47122e-29
1.19098e-27
2.24179e-27
-1.18428e-27
-1.35337e-26
-2.37829e-26
1.09249e-26
1.32411e-25
2.47256e-25
-1.60452e-26
-1.07974e-24
-2.40801e-24
-1.23647e-24
6.51965e-24
2.00063e-23
2.32127e-23
-1.66874e-23
-1.21348e-22
-2.3667e-22
-1.75008e-22
3.30839e-22
1.36051e-21
2.37428e-21
1.94059e-21
-1.85191e-21
-9.95014e-21
-2.02122e-20
-2.58793e-20
-1.63398e-20
1.88934e-20
8.40198e-20
1.71677e-19
2.62209e-19
3.29309e-19
3.50316e-19
3.16314e-19
2.36662e-19
1.35315e-19
4.07615e-20
-2.52441e-20
-5.4661e-20
-5.3186e-20
-3.45634e-20
-1.30375e-20
2.15253e-21
8.35423e-21
7.73782e-21
4.19868e-21
8.6354e-22
-9.02876e-22
-1.19888e-21
-7.49332e-22
-2.07321e-22
1.26398e-22
2.44034e-22
2.50946e-22
2.34054e-22
2.25766e-22
2.25445e-22
2.26542e-22
2.26818e-22
2.26731e-22
2.26696e-22
2.267e-22
1.27126e-43
-2.40541e-43
-1.79576e-42
-4.8683e-43
1.73085e-41
3.37831e-41
-1.12041e-40
-5.14056e-40
1.78931e-40
5.07176e-39
7.16518e-39
-3.28191e-38
-1.20701e-37
6.84022e-38
1.14282e-36
1.49506e-36
-6.57767e-36
-2.39981e-35
7.06503e-36
1.97288e-34
3.1824e-34
-8.49885e-34
-3.92725e-33
-1.57713e-33
2.41582e-32
5.82899e-32
-4.48877e-32
-4.69976e-31
-6.65707e-31
1.57531e-30
7.32738e-30
5.8475e-30
-3.06505e-29
-9.87671e-29
-3.99988e-29
4.56254e-28
1.21501e-27
2.8665e-28
-5.61881e-27
-1.4127e-26
-4.49183e-27
5.78094e-26
1.55545e-25
9.81929e-26
-4.69402e-25
-1.55591e-24
-1.73049e-24
2.34661e-24
1.29037e-23
2.25605e-23
5.68421e-24
-7.23786e-23
-2.05681e-22
-2.63049e-22
5.43064e-23
1.05946e-21
2.60345e-21
3.39238e-21
6.58167e-22
-8.89127e-21
-2.61136e-20
-4.48484e-20
-4.78585e-20
-6.79906e-21
1.10781e-19
3.27462e-19
6.3971e-19
1.0076e-18
1.35832e-18
1.60566e-18
1.67965e-18
1.55366e-18
1.25634e-18
8.62045e-19
4.63868e-19
1.41552e-19
-6.17883e-20
-1.45688e-19
-1.4164e-19
-9.35577e-20
-3.94521e-20
-1.29344e-21
1.55319e-20
1.63796e-20
9.97698e-21
3.19341e-21
-8.25879e-22
-1.96768e-21
-1.48584e-21
-6.2602e-22
-3.26013e-23
2.01974e-22
2.31821e-22
2.0824e-22
1.94547e-22
1.93614e-22
1.9518e-22
1.95549e-22
1.95436e-22
1.95407e-22
3.58194e-43
-1.82964e-42
-6.36232e-42
8.72635e-42
7.91486e-41
4.2254e-41
-7.11016e-40
-1.59138e-39
4.10891e-39
2.18054e-38
-7.75905e-40
-1.97987e-37
-3.33497e-37
1.14264e-36
4.83548e-36
-1.05737e-36
-4.15152e-35
-6.55373e-35
2.09308e-34
8.8499e-34
3.17599e-35
-6.49898e-33
-1.22803e-32
2.32217e-32
1.2918e-31
8.7412e-32
-6.92981e-31
-1.9091e-30
6.95218e-31
1.32672e-29
2.20841e-29
-3.48344e-29
-1.98919e-28
-2.07138e-28
6.79612e-28
2.53421e-27
1.70282e-27
-9.51712e-27
-2.88883e-26
-1.52257e-26
1.0589e-25
3.03344e-25
1.85891e-25
-9.3859e-25
-2.91934e-24
-2.64807e-24
5.98553e-24
2.44553e-23
3.3513e-23
-1.44018e-23
-1.5806e-22
-3.25036e-22
-2.28759e-22
5.48226e-22
2.08781e-21
3.37541e-21
1.89764e-21
-5.34131e-21
-1.87846e-20
-3.23245e-20
-3.14406e-20
2.92085e-21
8.38096e-20
2.05493e-19
3.3727e-19
4.31699e-19
4.47106e-19
3.73391e-19
2.44457e-19
1.26027e-19
8.24368e-20
1.40728e-19
2.7402e-19
4.15092e-19
4.92336e-19
4.66572e-19
3.47787e-19
1.84551e-19
3.55267e-20
-5.87174e-20
-8.89746e-20
-7.24612e-20
-3.70589e-20
-5.82899e-21
1.06676e-20
1.33144e-20
8.58314e-21
2.7598e-21
-9.25493e-22
-2.18421e-21
-2.10716e-21
-1.74445e-21
-1.54915e-21
-1.52189e-21
-1.54375e-21
-1.55463e-21
-1.55414e-21
-1.55275e-21
-1.55266e-21
-1.55275e-21
-4.46468e-43
-1.28833e-42
3.90898e-42
2.03529e-41
-4.95892e-42
-2.16472e-40
-3.32285e-40
1.54852e-39
5.98655e-39
-4.07575e-39
-6.36199e-38
-7.77256e-38
4.35985e-37
1.49454e-36
-1.05843e-36
-1.4831e-35
-1.88161e-35
8.75415e-35
3.19003e-34
-9.0422e-35
-2.67143e-33
-4.46765e-33
1.14213e-32
5.53401e-32
2.65462e-32
-3.39402e-31
-8.63242e-31
5.67502e-31
6.89739e-30
1.04106e-29
-2.25228e-29
-1.11733e-28
-9.64208e-29
4.6359e-28
1.54891e-27
6.7507e-28
-7.18299e-27
-1.93381e-26
-4.22605e-27
9.13157e-26
2.25597e-25
5.49334e-26
-9.69422e-25
-2.48289e-24
-1.25973e-24
8.26578e-24
2.49901e-23
2.37722e-23
-4.78538e-23
-2.1261e-22
-3.26551e-22
2.48138e-23
1.29744e-21
3.14326e-21
3.24018e-21
-2.78111e-21
-1.81194e-20
-3.73948e-20
-3.86093e-20
1.60587e-20
1.59215e-19
3.73805e-19
5.41339e-19
4.19278e-19
-3.1232e-19
-1.92172e-18
-4.45285e-18
-7.59606e-18
-1.0695e-17
-1.29281e-17
-1.36095e-17
-1.2474e-17
-9.80384e-18
-6.32625e-18
-2.92951e-18
-3.35471e-19
1.12041e-18
1.51979e-18
1.22382e-18
6.63575e-19
1.66662e-19
-1.17164e-19
-1.92803e-19
-1.44736e-19
-6.31221e-20
-2.76271e-21
2.19141e-20
2.10371e-20
1.05856e-20
1.29973e-21
-3.44475e-21
-4.73573e-21
-4.63758e-21
-4.39563e-21
-4.32145e-21
-4.33292e-21
-4.34495e-21
-4.34553e-21
-4.34444e-21
-4.34436e-21
-3.7503e-42
1.25607e-41
5.92353e-41
-3.36017e-41
-6.56223e-40
-7.46636e-40
5.19837e-39
1.58836e-38
-2.25162e-38
-1.85921e-37
-1.11558e-37
1.47563e-36
3.53638e-36
-6.57766e-36
-4.15174e-35
-1.88225e-35
3.0475e-34
6.98096e-34
-1.1219e-33
-7.40591e-33
-5.19726e-33
4.49034e-32
1.21535e-31
-8.77866e-32
-1.0076e-30
-1.3409e-30
4.07643e-30
1.66598e-29
7.01919e-30
-8.93363e-29
-2.22063e-28
7.93114e-29
1.44938e-27
2.54608e-27
-2.71104e-27
-1.94818e-26
-2.7112e-26
4.23197e-26
2.2843e-25
2.91949e-25
-4.52049e-25
-2.379e-24
-3.29542e-24
3.12466e-24
2.15538e-23
3.67678e-23
-3.1975e-24
-1.56361e-22
-3.61312e-22
-2.70882e-22
6.94716e-22
2.70055e-21
4.23741e-21
1.25929e-21
-1.11391e-20
-3.2638e-20
-4.85377e-20
-2.45606e-20
8.2996e-20
2.93144e-19
5.46665e-19
6.56892e-19
3.01576e-19
-9.13792e-19
-3.32041e-18
-7.01846e-18
-1.17469e-17
-1.68592e-17
-2.14382e-17
-2.4527e-17
-2.54045e-17
-2.3811e-17
-2.00418e-17
-1.4871e-17
-9.32906e-18
-4.40739e-18
-7.95978e-19
1.25842e-18
1.93417e-18
1.68387e-18
1.02753e-18
3.77352e-19
-4.84733e-20
-2.15556e-19
-2.01647e-19
-1.13514e-19
-3.01078e-20
1.57543e-20
2.67883e-20
2.01644e-20
1.09094e-20
5.60524e-21
4.19177e-21
4.40959e-21
4.72273e-21
4.79056e-21
4.76473e-21
4.75227e-21
4.75353e-21
4.7544e-21
-3.01445e-42
3.31722e-41
7.36962e-41
-2.28421e-40
-1.13288e-39
4.52192e-40
1.20362e-38
1.56287e-38
-8.9566e-38
-2.98818e-37
3.23499e-37
3.27568e-36
2.7459e-36
-2.39941e-35
-6.5535e-35
8.75244e-35
6.98048e-34
5.33791e-34
-4.60144e-33
-1.24964e-32
1.24135e-32
1.16481e-31
1.24598e-31
-6.04908e-31
-2.01548e-30
3.45093e-31
1.42538e-29
2.52133e-29
-4.29916e-29
-2.43551e-28
-2.16304e-28
1.03897e-27
3.3679e-27
8.445e-28
-1.72551e-26
-4.03059e-26
8.79875e-27
2.30261e-25
4.4345e-25
-2.03848e-25
-2.60792e-24
-4.70972e-24
1.786e-24
2.53418e-23
4.87647e-23
5.88533e-25
-2.03864e-22
-4.69977e-22
-2.72309e-22
1.19378e-21
3.83576e-21
4.67935e-21
-2.59403e-21
-2.25404e-20
-4.57172e-20
-3.71338e-20
5.49593e-20
2.50219e-19
4.54715e-19
4.05539e-19
-2.60806e-19
-1.74867e-18
-3.71204e-18
-4.96294e-18
-3.59236e-18
2.32113e-18
1.35941e-17
2.8969e-17
4.49624e-17
5.68693e-17
6.062e-17
5.46073e-17
4.05086e-17
2.26205e-17
6.03834e-18
-5.37619e-18
-1.0243e-17
-9.64838e-18
-6.09958e-18
-2.15627e-18
5.54429e-19
1.60434e-18
1.42678e-18
7.4671e-19
1.30865e-19
-1.83787e-19
-2.26759e-19
-1.36906e-19
-3.47978e-20
2.62317e-20
4.68131e-20
4.73842e-20
4.40608e-20
4.25521e-20
4.25343e-20
4.27469e-20
4.27948e-20
4.27769e-20
4.27707e-20
4.27716e-20
2.44891e-41
-3.73712e-41
-3.36651e-40
-1.70074e-40
3.11981e-39
6.91627e-39
-1.88124e-38
-9.83236e-38
9.37896e-39
9.27342e-37
1.52387e-36
-5.62272e-36
-2.32767e-35
7.07588e-36
2.09329e-34
3.18997e-34
-1.12203e-33
-4.60173e-33
2.66837e-34
3.57889e-32
6.53176e-32
-1.39801e-31
-7.39461e-31
-4.39216e-31
4.27163e-30
1.13902e-29
-5.80113e-30
-8.58716e-29
-1.36807e-28
2.57105e-28
1.36779e-27
1.30977e-27
-5.2662e-27
-1.87091e-26
-1.05539e-26
8.00173e-26
2.31897e-25
9.10742e-26
-9.91643e-25
-2.69374e-24
-1.23898e-24
1.01485e-23
2.93883e-23
2.19949e-23
-8.0617e-23
-2.89445e-22
-3.49485e-22
3.70762e-22
2.34963e-21
4.32329e-21
1.55501e-21
-1.26898e-20
-3.80732e-20
-5.10941e-20
4.00582e-21
1.88448e-19
4.81056e-19
6.4872e-19
1.78131e-19
-1.55719e-18
-4.75332e-18
-8.32001e-18
-9.10919e-18
-1.88428e-18
1.93985e-17
5.89947e-17
1.16334e-16
1.84081e-16
2.48763e-16
2.94394e-16
3.0799e-16
2.84629e-16
2.29662e-16
1.56916e-16
8.36507e-17
2.4591e-17
-1.2386e-17
-2.73246e-17
-2.61579e-17
-1.70527e-17
-7.01396e-18
-3.40939e-20
2.96872e-18
3.03972e-18
1.81339e-18
5.53481e-19
-1.76541e-19
-3.7198e-19
-2.72813e-19
-1.10107e-19
-2.75307e-22
4.2287e-20
4.73161e-20
4.28693e-20
4.03847e-20
4.02399e-20
4.05293e-20
4.05943e-20
4.05731e-20
4.05679e-20
6.74751e-41
-3.23837e-40
-1.1781e-39
1.45472e-39
1.43917e-38
9.05481e-39
-1.26893e-37
-2.98889e-37
7.06812e-37
3.98581e-36
2.82087e-37
-3.54276e-35
-6.34959e-35
1.9729e-34
8.85028e-34
-9.03361e-35
-7.40594e-33
-1.2497e-32
3.57874e-32
1.61236e-31
2.42486e-32
-1.1485e-30
-2.30811e-30
3.82932e-30
2.32612e-29
1.82401e-29
-1.19736e-28
-3.50536e-28
7.76259e-29
2.33508e-27
4.16876e-27
-5.53245e-27
-3.54332e-26
-4.09133e-26
1.12366e-25
4.55408e-25
3.60704e-25
-1.5899e-24
-5.21716e-24
-3.4234e-24
1.76109e-23
5.47189e-23
4.07925e-23
-1.52574e-22
-5.21428e-22
-5.4139e-22
9.06161e-22
4.27264e-21
6.44235e-21
-1.0655e-21
-2.63555e-20
-5.92974e-20
-5.11197e-20
7.66706e-20
3.56059e-19
6.34632e-19
4.78607e-19
-6.96944e-19
-3.1351e-18
-6.00334e-18
-6.89857e-18
-2.22435e-18
1.12733e-17
3.43445e-17
6.37591e-17
9.28466e-17
1.14317e-16
1.24014e-16
1.23243e-16
1.17915e-16
1.14727e-16
1.16722e-16
1.21166e-16
1.21233e-16
1.1043e-16
8.68892e-17
5.48197e-17
2.23857e-17
-2.43554e-18
-1.54339e-17
-1.73147e-17
-1.22737e-17
-5.31871e-18
-1.17899e-20
2.38644e-18
2.43088e-18
1.3967e-18
3.48658e-19
-2.43496e-19
-4.04733e-19
-3.56754e-19
-2.81842e-19
-2.47201e-19
-2.44006e-19
-2.48497e-19
-2.50384e-19
-2.5021e-19
-2.49953e-19
-2.49945e-19
-2.49961e-19
-6.55665e-41
-3.24382e-40
4.18619e-40
4.13911e-39
2.76946e-39
-3.75611e-38
-9.32522e-38
2.08276e-37
1.27307e-36
2.62379e-37
-1.14875e-35
-2.29818e-35
6.27291e-35
3.18173e-34
3.17138e-35
-2.67117e-33
-5.19645e-33
1.24139e-32
6.5314e-32
2.42388e-32
-4.63088e-31
-1.06846e-30
1.41565e-30
1.05788e-29
1.04331e-29
-5.4018e-29
-1.78751e-28
8.61083e-30
1.19867e-27
2.36928e-27
-2.75529e-27
-2.03323e-26
-2.54399e-26
6.72722e-26
2.88979e-25
2.3287e-25
-1.10007e-24
-3.63454e-24
-2.10455e-24
1.41323e-23
4.19153e-23
2.4098e-23
-1.4713e-22
-4.47521e-22
-3.52326e-22
1.18523e-21
4.3009e-21
5.0757e-21
-5.80273e-21
-3.44176e-20
-6.01421e-20
-1.39827e-20
1.90966e-19
5.23042e-19
6.24752e-19
-2.39678e-19
-2.70737e-18
-6.11529e-18
-7.0922e-18
5.40932e-19
2.26414e-17
5.77105e-17
8.83783e-17
7.72413e-17
-2.63301e-17
-2.6599e-16
-6.50792e-16
-1.13403e-15
-1.61365e-15
-1.96065e-15
-2.06683e-15
-1.89029e-15
-1.47566e-15
-9.37649e-16
-4.1575e-16
-2.22156e-17
1.92416e-16
2.4341e-16
1.8923e-16
9.79812e-17
2.0193e-17
-2.2268e-17
-3.17688e-17
-2.25674e-17
-9.07799e-18
3.49839e-19
3.87218e-18
3.40255e-18
1.58091e-18
7.65408e-20
-6.51935e-19
-8.31196e-19
-8.05186e-19
-7.66281e-19
-7.56027e-19
-7.58404e-19
-7.60237e-19
-7.6025e-19
-7.60077e-19
-7.60069e-19
-6.26031e-40
1.77492e-39
9.53755e-39
-2.80483e-39
-1.01342e-37
-1.39546e-37
7.60888e-37
2.61732e-36
-2.78571e-36
-2.9042e-35
-2.42242e-35
2.1836e-34
5.91465e-34
-8.50079e-34
-6.49936e-33
-4.46751e-33
4.49058e-32
1.16485e-31
-1.39801e-31
-1.14853e-30
-1.06851e-30
6.46238e-30
1.9821e-29
-8.10092e-30
-1.52394e-28
-2.38632e-28
5.45042e-28
2.61391e-27
1.71778e-27
-1.27705e-26
-3.61511e-26
2.14144e-27
2.13898e-25
4.31464e-25
-2.80882e-25
-2.92869e-24
-4.76838e-24
4.84727e-24
3.46209e-23
5.22537e-23
-5.06002e-23
-3.59202e-22
-5.81721e-22
2.78488e-22
3.18916e-21
6.25714e-21
1.46168e-21
-2.19744e-20
-5.86623e-20
-5.73929e-20
8.08844e-20
4.11961e-19
7.39724e-19
4.23757e-19
-1.44905e-18
-5.14385e-18
-8.65876e-18
-6.41639e-18
9.75147e-18
4.53663e-17
9.37316e-17
1.25441e-16
8.36655e-17
-1.07712e-16
-5.20318e-16
-1.18714e-15
-2.0713e-15
-3.05387e-15
-3.95198e-15
-4.56611e-15
-4.74187e-15
-4.42302e-15
-3.67371e-15
-2.65994e-15
-1.59672e-15
-6.81712e-16
-4.10582e-17
2.93923e-16
3.74648e-16
2.98427e-16
1.65662e-16
4.84721e-17
-2.0699e-17
-4.24686e-17
-3.47132e-17
-1.72626e-17
-2.99454e-18
3.8477e-18
4.77821e-18
3.12924e-18
1.40089e-18
5.10075e-19
3.03625e-19
3.53482e-19
4.05966e-19
4.15401e-19
4.10655e-19
4.08734e-19
4.09e-19
4.09138e-19
-6.67454e-40
5.72091e-39
1.45435e-38
-3.61316e-38
-2.08482e-37
2.1443e-38
2.10446e-36
3.30043e-36
-1.46235e-35
-5.57655e-35
4.0299e-35
5.74918e-34
6.32011e-34
-3.92733e-33
-1.2281e-32
1.14201e-32
1.21536e-31
1.24608e-31
-7.39444e-31
-2.30813e-30
1.41552e-30
1.98208e-29
2.64187e-29
-9.24066e-29
-3.59175e-28
-4.89476e-29
2.31582e-27
4.79493e-27
-5.52806e-27
-4.09706e-26
-4.72483e-26
1.51482e-25
5.82635e-25
3.16638e-25
-2.61381e-24
-7.14351e-24
-9.5213e-25
3.52668e-23
7.98206e-23
-4.14478e-24
-3.96214e-22
-8.45196e-22
-3.17746e-23
3.73439e-21
8.50435e-21
3.23745e-21
-2.80685e-20
-7.76031e-20
-6.87184e-20
1.38176e-19
5.82014e-19
8.75696e-19
3.08434e-20
-2.93288e-18
-7.19107e-18
-8.00842e-18
2.92377e-18
3.14246e-17
6.89763e-17
8.21346e-17
1.66429e-17
-1.72549e-16
-4.69907e-16
-7.54506e-16
-8.03346e-16
-3.69821e-16
6.79894e-16
2.24017e-15
3.93475e-15
5.22834e-15
5.6474e-15
5.00193e-15
3.48612e-15
1.59758e-15
-8.35331e-17
-1.13679e-15
-1.44304e-15
-1.16939e-15
-6.32282e-16
-1.29707e-16
1.70481e-16
2.49789e-16
1.86302e-16
7.98568e-17
-1.18886e-18
-3.51126e-17
-3.31582e-17
-1.69026e-17
-2.2112e-18
5.36098e-18
7.2753e-18
6.86934e-18
6.29575e-18
6.11349e-18
6.13958e-18
6.17423e-18
6.1783e-18
6.17477e-18
6.17404e-18
6.17424e-18
3.27736e-39
-1.56204e-39
-4.10697e-38
-5.20142e-38
3.27925e-37
1.07098e-36
-1.38224e-36
-1.2649e-35
-8.76986e-36
1.02013e-34
2.58338e-34
-4.56822e-34
-3.08006e-33
-1.5761e-33
2.32223e-32
5.53362e-32
-8.77983e-32
-6.04915e-31
-4.39172e-31
3.82945e-30
1.05788e-29
-8.10152e-30
-9.24081e-29
-1.22329e-28
4.04036e-28
1.6372e-27
5.69638e-28
-9.59456e-27
-2.32143e-26
1.26916e-26
1.6957e-25
2.78555e-25
-4.14405e-25
-2.49834e-24
-3.03069e-24
7.28435e-24
3.24552e-23
3.31234e-23
-9.49017e-23
-3.82715e-22
-3.98264e-22
9.50147e-22
4.09954e-21
5.15825e-21
-6.50465e-21
-3.84433e-20
-6.39867e-20
8.46876e-21
2.86348e-19
6.70903e-19
5.32692e-19
-1.25823e-18
-5.18462e-18
-8.56715e-18
-3.38508e-18
2.11877e-17
6.67049e-17
1.04785e-16
6.17563e-17
-1.64336e-16
-6.2855e-16
-1.20879e-15
-1.47625e-15
-6.68748e-16
2.13554e-15
7.6307e-15
1.58078e-14
2.56323e-14
3.51137e-14
4.18472e-14