/*--------------------------------*- C++ -*----------------------------------*\
  =========                 |
  \\      /  F ield         | OpenFOAM: The Open Source CFD Toolbox
   \\    /   O peration     | Website:  https://openfoam.org
    \\  /    A nd           | Version:  13
     \\/     M anipulation  |
\*---------------------------------------------------------------------------*/
FoamFile
{
    format      ascii;
    class       volScalarField;
    location    "3";
    object      T;
}
// * * * * * * * * * * * * * * * * * * * * * * * * * * * * * * * * * * * * * //

dimensions      [0 0 0 1 0 0 0];

internalField   nonuniform List<scalar> 
10000
(
0
0
0
0
0
0
0
0
0
0
0
0
0
0
0
0
0
0
0
0
0
0
0
0
0
0
0
0
0
0
0
0
0
0
0
0
0
0
0
0
0
0
0
0
0
0
0
0
0
0
0
0
0
0
0
0
0
0
0
0
0
0
0
0
0
0
0
0
0
0
0
0
0
0
0
0
0
0
0
0
0
0
0
0
0
0
0
0
0
0
0
0
0
0
0
0
0
0
0
0
0
0
0
0
0
0
0
0
0
0
0
0
0
0
0
0
0
0
0
0
0
0
0
0
0
0
0
0
0
0
0
0
0
0
0
0
0
0
0
0
0
0
0
0
0
0
0
0
0
0
0
0
0
0
0
0
0
0
0
0
0
0
0
0
0
0
0
0
0
0
0
0
0
0
0
0
0
0
0
0
0
0
0
0
0
0
0
0
0
0
0
0
0
0
0
0
0
0
0
0
0
0
0
0
0
0
0
0
0
0
0
0
0
0
0
0
0
0
0
0
0
0
0
0
0
0
0
0
0
0
0
0
0
0
0
0
0
0
0
0
0
0
0
0
0
0
0
0
0
0
0
0
0
0
0
0
0
0
0
0
0
0
0
0
0
0
0
0
0
0
0
0
0
0
0
0
0
0
0
0
0
0
0
0
0
0
0
0
0
0
0
0
0
0
0
0
0
0
0
0
0
0
0
0
0
0
0
0
0
0
0
0
0
0
0
0
0
0
0
0
0
0
0
0
0
0
0
0
0
0
0
0
0
0
0
0
0
0
0
0
0
0
0
0
0
0
0
0
0
0
0
0
0
0
0
0
0
0
0
0
0
0
0
0
0
0
0
0
0
0
0
0
0
0
0
0
0
0
0
0
0
0
0
0
0
0
0
0
0
0
0
0
0
0
0
0
0
0
0
0
0
0
0
0
0
0
0
0
0
0
0
0
0
0
0
0
0
0
0
0
0
0
0
0
0
0
0
0
0
0
0
0
0
0
0
0
0
0
0
0
0
0
0
0
0
0
0
0
0
0
0
0
0
0
0
0
0
0
0
0
0
0
0
0
0
0
0
0
0
0
0
0
0
0
0
0
0
0
0
0
0
0
0
0
0
0
0
0
0
0
0
0
0
0
0
0
0
0
0
0
0
0
0
0
0
0
0
0
0
0
0
0
0
0
0
0
0
0
0
0
0
0
0
0
0
0
0
0
0
0
0
0
0
0
0
0
0
0
0
0
0
0
0
0
0
0
0
0
0
0
0
0
0
0
0
0
0
0
0
0
0
0
0
0
0
0
0
0
0
0
0
0
0
0
0
0
0
0
0
0
0
0
0
0
0
0
0
0
0
0
0
0
0
0
0
0
0
0
0
0
0
0
0
0
0
0
0
0
0
0
0
0
0
0
0
0
0
0
0
0
0
0
0
0
0
0
0
0
0
0
0
0
0
0
0
0
0
0
0
0
0
0
0
0
0
0
0
0
0
0
0
0
0
0
0
0
0
0
0
0
0
0
0
0
0
0
0
0
0
0
0
0
0
0
0
0
0
0
0
0
0
0
0
0
0
0
0
0
0
0
0
0
0
0
0
0
0
0
0
0
0
0
0
0
0
0
0
0
0
0
0
0
0
0
0
0
0
0
0
0
0
0
0
0
0
0
0
0
0
0
0
0
0
0
0
0
0
0
0
0
0
0
0
0
0
0
0
0
0
0
0
0
0
0
0
0
0
0
0
0
0
0
0
0
0
0
0
0
0
0
0
0
0
0
0
0
0
0
0
0
0
0
0
0
0
0
0
0
0
0
0
0
0
0
0
0
0
0
0
0
0
0
0
0
0
0
0
0
0
0
0
0
0
0
0
0
0
0
0
0
0
0
0
0
0
0
0
0
0
0
0
0
0
0
0
0
0
0
0
0
0
0
0
0
0
0
0
0
0
0
0
0
0
0
0
0
0
0
0
0
0
0
0
0
0
0
0
0
0
0
0
0
0
0
0
0
0
0
0
0
0
0
0
0
0
0
0
0
0
0
0
0
0
0
0
0
0
0
0
0
0
0
0
0
0
0
0
0
0
0
0
0
0
0
0
0
0
0
0
0
0
0
0
0
0
0
0
0
0
0
0
0
0
0
0
0
0
0
0
0
0
0
0
0
0
0
0
0
0
0
0
0
0
0
0
0
0
0
0
0
0
0
0
0
0
0
0
0
0
0
0
0
0
0
0
0
0
0
0
0
0
0
0
0
0
0
0
0
0
0
0
0
0
0
0
0
0
0
0
0
0
0
0
0
0
0
0
0
0
0
0
0
0
0
0
0
0
0
0
0
0
0
0
0
0
0
0
0
0
0
0
0
0
0
0
0
0
0
0
0
0
0
0
0
0
0
0
0
0
0
0
0
0
0
0
0
0
0
0
0
0
0
0
0
0
0
0
0
0
0
0
0
0
0
0
0
0
0
0
0
0
0
0
0
0
0
0
0
0
0
0
0
0
0
0
0
0
0
0
0
0
0
0
0
0
0
0
0
0
0
0
0
0
0
0
0
0
0
0
0
0
0
0
0
0
0
0
0
0
0
0
0
0
0
0
0
0
0
0
0
0
0
0
0
0
0
0
0
0
0
0
0
0
0
0
0
0
0
0
0
0
0
0
0
0
0
0
0
0
0
0
0
0
0
0
0
0
0
0
0
0
0
0
0
0
0
0
0
0
0
0
0
0
0
0
0
0
0
0
0
0
0
0
0
0
0
0
0
0
0
0
0
0
0
0
0
0
0
0
0
0
0
0
0
0
0
0
0
0
0
0
0
0
0
0
0
0
0
0
0
0
0
0
0
0
0
0
0
0
0
0
0
0
0
0
0
0
0
0
0
0
0
0
0
0
0
0
0
0
0
0
0
0
0
0
0
0
0
0
0
0
0
0
0
0
0
0
0
0
0
0
0
0
0
0
0
0
0
0
0
0
0
0
0
0
0
0
0
0
0
0
0
0
0
0
0
0
0
0
0
0
0
0
0
0
0
0
0
0
0
0
0
0
0
0
0
0
0
0
0
0
0
0
0
0
0
0
0
0
0
0
0
0
0
0
0
0
0
0
0
0
0
0
0
0
0
0
0
0
0
0
0
0
0
0
0
0
0
0
0
0
0
0
0
0
0
0
0
0
0
0
0
0
0
0
0
0
0
0
0
0
0
0
0
0
0
0
0
0
0
0
0
0
0
0
0
0
0
0
0
0
0
0
0
0
0
0
0
0
0
0
0
0
0
0
0
0
0
0
0
0
0
0
0
0
0
0
0
0
0
0
0
0
0
0
0
0
0
0
0
0
0
0
0
0
0
0
0
0
0
0
0
0
0
0
0
0
0
0
0
0
0
0
0
0
0
0
0
0
0
0
0
0
0
0
0
0
0
0
0
0
0
0
0
0
0
0
0
0
0
0
0
0
0
0
0
0
0
0
0
0
0
0
0
0
0
0
0
0
0
0
0
0
0
0
0
0
0
0
0
0
0
0
0
0
0
0
0
0
0
0
0
0
0
0
0
0
0
0
0
0
0
0
0
0
0
0
0
0
0
0
0
0
0
0
0
0
0
0
0
0
0
0
0
0
0
0
0
0
0
0
0
0
0
0
0
0
0
0
0
0
0
0
0
0
0
0
0
0
0
0
0
0
0
0
0
0
0
0
0
0
0
0
0
0
0
0
0
0
0
0
0
0
0
0
0
0
0
0
0
0
0
0
0
0
0
0
0
0
0
0
0
0
0
0
0
0
0
0
0
0
0
0
0
0
0
0
0
0
0
0
0
0
0
0
0
0
0
0
0
0
0
0
0
0
0
0
0
0
0
0
0
0
0
0
0
0
0
0
0
0
0
0
0
0
0
0
0
0
0
0
0
0
0
0
0
0
0
0
0
0
0
0
0
0
0
0
0
0
0
0
0
0
0
0
0
0
0
0
0
0
0
0
0
0
0
0
0
0
0
0
0
0
0
0
0
0
0
0
0
0
0
0
0
0
0
0
0
0
0
0
0
0
0
0
0
0
0
0
0
0
0
0
0
0
0
0
0
0
0
0
0
0
0
0
0
0
0
0
0
0
0
0
0
0
0
0
0
0
0
0
0
0
0
0
0
0
0
0
0
0
0
0
0
0
0
0
0
0
0
0
0
0
0
0
0
0
0
0
0
0
0
0
0
0
0
0
0
0
0
0
0
0
0
0
0
0
0
0
0
0
0
0
0
0
0
0
0
0
0
0
0
0
0
0
0
0
0
0
0
0
0
0
0
0
0
0
0
0
0
0
0
0
0
0
0
0
0
0
0
0
0
0
0
0
0
0
0
0
0
0
0
0
0
0
0
0
0
0
0
0
0
0
0
0
0
0
0
0
0
0
0
0
0
0
0
0
0
0
0
0
0
0
0
0
0
0
0
0
0
0
0
0
0
0
0
0
0
0
0
0
0
0
0
0
0
0
0
0
0
0
0
0
0
0
0
0
0
0
0
0
0
0
0
0
0
0
0
0
0
0
0
0
0
0
0
0
0
0
0
0
0
0
0
0
0
0
0
0
0
0
0
0
0
0
0
0
0
0
0
0
0
0
0
0
0
0
0
0
0
0
0
0
0
0
0
0
0
0
0
0
0
0
0
0
0
0
0
0
0
0
0
0
0
0
0
0
0
0
0
0
0
0
0
0
0
0
0
0
0
0
0
0
0
0
0
0
0
0
0
0
0
0
0
0
0
0
0
0
0
0
0
0
0
0
0
0
0
0
0
0
0
0
0
0
0
0
0
0
0
0
0
0
0
0
0
0
0
0
0
0
0
0
0
0
0
0
0
0
0
0
0
0
0
0
0
0
0
0
0
0
0
0
0
0
0
0
0
0
0
0
0
0
0
0
0
0
0
0
0
0
0
0
0
0
0
0
0
0
0
0
0
0
0
0
0
0
0
0
0
0
0
0
0
0
0
0
0
0
0
0
0
0
0
0
0
0
0
0
0
0
0
0
0
0
0
0
0
0
0
0
0
0
0
0
0
0
0
0
0
0
0
0
0
0
0
0
0
0
0
0
0
0
0
0
0
0
0
0
0
0
0
0
0
0
0
0
0
0
0
0
0
0
0
0
0
0
0
0
0
0
0
0
0
0
0
0
0
0
0
0
0
0
0
0
0
0
0
0
0
0
0
0
0
0
0
0
0
0
0
0
0
0
0
0
0
0
0
0
0
0
0
0
0
0
0
0
0
0
0
0
0
0
0
0
0
0
0
0
0
0
0
0
0
0
0
0
0
0
0
0
0
0
0
0
0
0
0
0
0
0
0
0
0
0
0
0
0
0
0
0
0
0
0
0
0
0
0
0
0
0
0
0
0
0
0
0
0
0
0
0
0
0
0
0
0
0
0
0
0
0
0
0
0
0
0
0
0
0
0
0
0
0
0
0
0
0
0
0
0
0
0
0
0
0
0
0
0
0
0
0
0
0
0
0
0
0
0
0
0
0
0
0
0
0
0
0
0
0
0
0
0
0
0
6.68965e-321
-4.64768e-320
1.89909e-319
-5.39702e-319
-3.74502e-320
8.6702e-318
-1.11229e-317
8.08854e-318
-3.48479e-317
-9.59431e-317
1.21377e-315
-4.24753e-315
6.27344e-315
-9.2897e-315
-2.20237e-314
-9.23849e-315
7.1086e-314
-2.75581e-313
9.23e-313
6.54116e-313
7.77001e-313
-1.6195e-312
-4.69799e-312
-1.65191e-312
2.31549e-312
1.02856e-311
3.98906e-312
-1.03428e-311
-8.3007e-312
-5.43188e-313
6.11497e-312
-4.33337e-313
1.24459e-311
1.65739e-311
-3.83836e-312
-1.06937e-311
-3.89275e-311
-7.38674e-312
1.64903e-311
2.03763e-311
-1.6526e-311
1.99399e-311
1.55427e-311
-1.52632e-311
1.74641e-311
-1.12619e-311
1.74257e-311
-5.08553e-311
9.3545e-312
1.27215e-311
9.68866e-312
1.35117e-312
-4.64502e-312
1.96677e-312
-2.11321e-311
2.96258e-312
6.71985e-312
3.49476e-312
-1.12553e-312
3.98162e-313
-7.3532e-314
-2.84658e-313
-1.93628e-313
2.70808e-314
1.06674e-313
-5.85021e-315
0
0
0
0
0
1.2401e-321
-2.00195e-320
1.19707e-319
-6.48604e-319
4.54902e-318
-2.16323e-317
5.61855e-317
-7.39564e-317
4.38027e-316
-8.85322e-317
-4.70618e-317
-2.73559e-315
1.29136e-314
-7.61934e-314
5.00507e-313
-2.62144e-312
1.00598e-311
-3.99751e-311
2.05846e-310
-7.18243e-310
2.16427e-309
-3.531e-309
3.15801e-309
3.64959e-309
-9.47173e-308
3.74745e-307
-3.45475e-307
1.63255e-306
-3.06751e-308
-7.18029e-306
-3.84117e-305
2.72297e-304
-1.01996e-303
-4.01054e-304
3.34215e-303
-9.66766e-304
-9.06044e-304
1.11961e-304
-4.67605e-302
3.18847e-301
-1.03107e-300
1.42058e-300
5.20522e-300
-7.0378e-299
3.81753e-298
-2.69452e-298
-8.34421e-298
8.33802e-300
6.39044e-298
6.84902e-298
4.32789e-298
-4.67771e-298
-1.19123e-297
-7.20653e-298
1.02797e-297
4.21842e-297
-5.91291e-297
1.06121e-296
5.64176e-297
-7.56878e-297
-2.57193e-296
-6.94085e-297
1.72737e-296
1.95158e-296
8.74145e-297
-6.98432e-297
-1.62396e-296
-1.6112e-296
1.25706e-296
2.49448e-296
-1.10499e-296
-5.62605e-297
1.96033e-297
-1.80585e-296
-2.36078e-296
7.96893e-297
3.8385e-296
1.95838e-296
2.27537e-297
-1.35971e-296
-2.24273e-296
-1.41279e-296
6.47809e-297
1.08913e-296
7.38563e-297
3.27903e-298
-2.97209e-297
-1.89155e-297
-2.73885e-298
3.79375e-298
3.64712e-298
5.73614e-299
-6.01463e-299
2.46511e-298
-1.51429e-298
3.51973e-310
-1.34114e-309
6.24182e-309
-2.1643e-308
1.60719e-307
-4.79378e-307
3.31113e-306
-2.43422e-305
4.40233e-305
-1.11794e-303
4.89631e-303
-3.11387e-302
1.00299e-301
-3.06456e-301
2.55038e-302
3.62984e-302
3.78438e-301
-1.46346e-300
1.02385e-299
-5.91028e-299
2.99641e-298
-1.69603e-297
7.60972e-297
-3.01454e-296
1.00312e-295
-2.43743e-295
7.17684e-295
-2.08339e-295
-3.86388e-294
3.34328e-293
-8.41876e-293
3.3222e-292
-8.79155e-292
1.55458e-291
-7.89897e-292
1.64397e-290
-1.34653e-289
3.79786e-289
-7.9851e-290
-7.0486e-289
-1.25631e-289
-1.75667e-288
7.11712e-288
1.0597e-287
-3.53813e-287
8.46547e-287
6.37923e-287
-3.79056e-285
2.66772e-284
-9.26021e-284
-1.4945e-284
1.74725e-283
1.29694e-283
-4.5934e-284
-1.80226e-283
-1.48275e-283
-1.67562e-283
7.14511e-283
3.32294e-283
-2.19803e-283
-1.21946e-282
4.29235e-282
-2.68768e-282
-6.6529e-282
-2.03373e-282
3.52543e-282
5.97513e-282
3.22784e-283
-1.32641e-282
-1.48506e-282
-6.553e-283
-3.46876e-284
6.67946e-282
-1.87736e-282
-7.60978e-282
2.22094e-283
-3.37488e-282
-7.39031e-282
2.58654e-282
1.22703e-281
7.43405e-282
3.53362e-282
-5.55212e-282
-5.90733e-282
-3.90965e-282
-6.01686e-283
3.67626e-282
2.17107e-282
3.08973e-283
-8.53943e-283
-5.29505e-283
-4.39654e-284
1.46117e-283
1.08098e-283
2.36736e-284
-2.01841e-284
-1.40865e-284
6.85838e-284
-1.69375e-283
-1.68435e-285
-7.63868e-296
5.78426e-295
-2.91238e-294
2.18837e-293
-8.46712e-293
6.03745e-292
-4.43529e-291
1.44888e-290
-9.57572e-290
3.30105e-289
-2.0915e-288
5.61653e-288
-3.31616e-287
2.02267e-286
-2.83565e-287
-2.31502e-287
-4.03487e-287
1.01656e-286
-1.04077e-285
7.13741e-285
-4.5909e-284
1.6914e-283
-8.38315e-283
3.97966e-282
-1.67001e-281
5.89968e-281
-2.63692e-281
-1.36593e-280
2.07842e-279
-1.46377e-278
7.68519e-278
-4.76825e-278
1.29676e-277
-2.53814e-277
-1.28503e-276
1.311e-275
1.35698e-275
-5.06595e-275
-1.41829e-274
7.47072e-274
2.00701e-274
4.20503e-274
-1.91167e-273
-5.15306e-273
1.77241e-272
4.23986e-273
-1.48904e-271
1.00407e-270
-3.96436e-270
4.49756e-270
2.36144e-269
-4.66086e-269
-1.76728e-268
-2.18836e-269
1.76984e-268
2.2956e-268
9.83269e-269
-1.43419e-268
-5.28269e-268
1.92051e-267
-2.96699e-268
-1.71192e-267
-1.51624e-267
1.02212e-266
-8.09433e-267
1.19481e-266
-1.33306e-266
5.86125e-268
1.70709e-267
2.11216e-266
-1.19818e-266
-6.04009e-267
-4.16376e-267
-2.20365e-267
1.83601e-267
-9.22722e-267
1.62824e-267
5.36447e-267
4.09835e-267
1.00974e-267
1.26097e-267
-2.7198e-267
-1.95587e-267
-3.38502e-268
5.02598e-268
1.3566e-267
-1.7905e-268
-3.83204e-268
-1.66383e-268
1.93622e-269
1.51102e-268
-4.42105e-268
8.86942e-269
2.11795e-268
1.26048e-268
4.58887e-269
-4.311e-269
-1.11085e-268
4.49523e-271
4.56587e-269
3.05367e-281
-2.12434e-280
1.44079e-279
-9.34624e-279
5.89702e-278
-3.50514e-277
1.92732e-276
-9.41218e-276
3.65545e-275
-2.36362e-274
8.90063e-274
-5.41994e-273
3.30429e-272
-1.29026e-271
3.65909e-271
-5.01608e-273
-8.4694e-272
1.38508e-271
8.37933e-271
-2.64421e-270
1.14693e-269
-6.9646e-269
3.77686e-268
-1.61219e-267
5.56325e-267
-1.32429e-266
1.9364e-266
1.77655e-265
-1.45061e-264
8.39676e-264
-3.07409e-263
1.02733e-262
-1.21082e-262
-3.4495e-262
2.70774e-261
-9.42066e-261
3.41098e-260
-2.30287e-260
-8.31214e-260
1.27144e-259
3.5128e-259
-2.50799e-258
7.03125e-258
4.07513e-258
-2.51384e-258
-9.85457e-258
1.00615e-257
-8.10721e-257
1.53495e-256
6.02852e-256
-6.65391e-255
2.94856e-254
-2.31171e-254
-1.2689e-253
3.28943e-254
1.46819e-253
5.75971e-254
1.7692e-253
6.00626e-253
-8.69449e-253
-9.09853e-253
-7.33362e-253
1.617e-252
6.53547e-252
2.16551e-252
-8.08554e-252
-8.45534e-252
-4.76931e-252
4.98649e-252
1.44617e-251
6.6146e-252
-2.1464e-252
-9.73161e-252
-8.15294e-252
-2.89806e-252
4.29803e-252
5.70749e-252
3.62867e-252
-4.36232e-253
-2.11588e-252
-1.94572e-252
-8.52895e-253
1.92136e-252
4.69297e-253
-4.33358e-253
-6.70189e-253
9.64568e-253
-1.59419e-252
2.90916e-253
4.01306e-253
-2.47879e-253
2.27421e-253
1.9232e-253
3.13684e-254
-2.31137e-253
-2.2714e-253
-9.08449e-254
8.25197e-254
1.47362e-253
-2.08188e-255
1.44033e-266
3.64347e-266
-1.67888e-265
1.18905e-264
-8.76835e-264
6.27468e-263
-4.38662e-262
2.9913e-261
-1.98738e-260
7.20428e-260
-4.39832e-259
2.69582e-258
-7.24177e-258
3.98545e-257
-2.20239e-256
1.14909e-255
-2.51352e-255
-3.29449e-256
2.90843e-256
5.09896e-256
-2.34766e-256
4.78235e-255
-2.58152e-254
1.32419e-253
-5.86281e-253
2.19264e-252
-6.20623e-252
7.01592e-252
1.61825e-250
-8.30338e-250
3.41337e-249
-1.02266e-248
-5.14528e-249
7.51177e-248
-4.83454e-247
2.05911e-246
-5.43915e-246
-1.72962e-246
3.87498e-245
-8.76003e-245
1.05638e-244
6.08475e-244
-1.44565e-243
-4.29204e-243
2.65523e-242
-7.01315e-242
1.31825e-241
4.9762e-242
-3.68015e-241
-5.58022e-241
1.58293e-240
-3.02888e-240
-4.87031e-240
3.59775e-239
1.46651e-239
3.45958e-239
-7.58228e-240
-9.02982e-239
-4.46719e-238
-2.71302e-238
8.88592e-238
1.39715e-237
4.75741e-239
-1.53217e-237
-1.6483e-237
-4.71286e-238
1.06079e-237
1.8472e-237
1.80335e-237
-6.60927e-238
-1.77169e-237
-1.29846e-237
-7.11779e-238
6.99523e-238
1.04209e-237
6.29743e-238
3.84566e-239
-3.05163e-238
-3.17253e-238
-1.56367e-238
4.03817e-239
-9.75055e-239
6.34398e-238
3.02869e-238
6.06101e-238
-6.73168e-239
-1.07306e-237
-1.0759e-237
1.4892e-238
4.88171e-238
3.22412e-238
7.18895e-239
-4.26497e-239
-1.05176e-238
-4.04646e-239
1.20744e-239
2.32528e-239
1.67482e-239
-3.4043e-239
1.49667e-239
1.05371e-251
-1.38433e-251
8.69597e-251
-2.11442e-250
-1.64966e-249
2.84068e-248
-1.98172e-247
1.20617e-246
-6.35307e-246
3.97422e-245
-1.8485e-244
9.70808e-244
-4.91671e-243
1.99917e-242
-8.6325e-242
3.59974e-241
-1.35639e-240
3.66176e-240
-5.29521e-240
1.17588e-239
-2.6687e-239
1.09162e-239
1.90544e-238
4.47574e-239
-3.97005e-238
-2.80194e-237
-5.63527e-237
1.13762e-236
3.19889e-236
-2.46022e-235
8.41262e-235
-1.95147e-234
-6.77414e-236
3.73636e-233
-2.25032e-232
4.95554e-232
-3.36962e-232
-2.77135e-231
1.8675e-230
-4.48189e-230
5.15034e-230
7.22245e-230
-1.55506e-229
-7.90424e-229
3.19046e-228
-6.36989e-228
2.38613e-229
9.94709e-227
-8.02155e-226
2.6186e-225
2.95274e-225
-7.58874e-225
-6.70426e-225
3.71631e-225
1.328e-225
1.47532e-224
4.15409e-224
8.00952e-225
-9.67489e-224
-1.54097e-223
-2.66444e-225
2.05017e-223
2.92586e-223
5.04074e-224
-1.98951e-223
-4.39856e-223
-2.20049e-223
7.96935e-224
4.03759e-223
4.20001e-223
1.62211e-223
-2.26304e-223
-2.30751e-223
-3.32581e-223
-1.47973e-223
-1.08813e-223
-1.09803e-223
1.33724e-222
5.60446e-223
-4.75537e-223
-6.97757e-223
-9.3576e-223
-7.73619e-224
2.83627e-223
5.20565e-223
6.14223e-223
-5.3365e-224
-2.74817e-223
-2.15904e-223
-9.98901e-224
5.28715e-225
9.0945e-224
4.14142e-224
7.48692e-225
-1.38033e-224
-2.86687e-224
-2.00179e-224
-5.95959e-225
2.29582e-224
1.1693e-224
-4.8909e-237
5.80223e-237
-4.7515e-236
3.42645e-235
-1.81038e-234
5.62514e-236
2.47834e-233
-1.62895e-232
1.02705e-231
-6.5918e-231
2.50512e-230
-1.41217e-229
7.83893e-229
-4.14741e-228
1.65688e-227
-7.91445e-227
2.65412e-226
-1.09955e-225
1.96636e-225
-1.9179e-225
5.25529e-225
6.92452e-225
-1.59463e-223
-6.49893e-223
3.97556e-223
6.02921e-223
2.76718e-222
-1.41619e-221
2.16231e-222
2.24401e-221
-4.8164e-221
1.5537e-220
-6.43365e-220
-3.92105e-219
2.83277e-218
-8.39648e-218
-1.22499e-217
1.20141e-216
-3.77411e-216
1.13366e-215
-1.03159e-215
-5.81262e-215
9.33164e-215
-1.20635e-215
3.3375e-214
-7.60263e-214
-6.71398e-213
-1.21278e-212
3.23895e-211
-1.89022e-211
-8.45162e-211
1.79573e-210
-7.93333e-211
-6.02871e-211
5.85824e-210
2.98803e-210
-1.5864e-209
-2.17128e-209
-4.6397e-211
3.89868e-209
4.97615e-209
4.65443e-210
-4.48353e-209
-7.29231e-209
-5.95366e-209
3.26412e-209
6.10414e-209
1.11272e-208
1.92898e-209
-5.48321e-209
-3.26867e-209
-4.09895e-209
-8.83998e-209
3.04373e-210
1.56478e-209
2.59537e-208
2.36742e-208
-3.29939e-208
-3.08058e-208
-5.18288e-209
-1.87125e-208
1.49976e-208
2.57379e-208
2.23495e-208
3.13118e-209
-9.73814e-209
1.65092e-209
-1.24976e-208
-2.03305e-209
1.54036e-209
3.0165e-209
-6.49462e-210
4.18743e-210
-7.68989e-210
-1.65235e-209
1.38199e-210
4.26326e-210
1.10183e-209
3.36624e-210
-2.91318e-210
-2.20695e-222
4.48813e-222
-2.45315e-221
1.34105e-220
-9.1524e-220
4.98464e-219
-2.47803e-218
6.06315e-218
-6.0964e-218
-3.20809e-216
2.93915e-215
-1.06898e-214
2.54529e-214
-9.86573e-214
6.5026e-213
-2.02126e-212
4.37994e-212
-1.54275e-211
1.06976e-210
-6.57361e-211
-8.99108e-211
2.38769e-209
-2.05764e-208
1.01039e-207
-4.72143e-207
1.17721e-206
-1.17761e-206
-1.6596e-206
-8.74509e-206
-3.44062e-205
-8.99594e-206
1.43805e-205
-6.18978e-205
5.72887e-205
-9.80809e-204
5.85718e-203
-6.46799e-203
1.80071e-202
-5.58611e-203
-1.16001e-201
2.77359e-201
-2.60178e-200
3.6436e-200
-3.86584e-200
3.83469e-199
-1.82529e-198
2.19455e-199
2.40619e-197
-1.13843e-196
5.66279e-197
4.88513e-196
-3.38523e-196
-9.32069e-196
-5.95354e-196
1.65236e-195
2.26858e-195
1.89553e-196
-2.96267e-195
-3.65936e-195
-1.00712e-195
3.31709e-195
3.88379e-195
1.08104e-194
4.19839e-195
-1.62795e-194
1.06271e-194
-3.49877e-194
2.67083e-194
-6.12935e-195
-1.72884e-194
3.73262e-194
3.4423e-194
-4.00474e-194
-7.30317e-194
-1.22111e-193
1.85771e-193
-3.14673e-194
-3.5777e-194
3.49219e-195
1.78653e-193
-3.86696e-193
9.88093e-194
1.96263e-193
2.85123e-194
8.92266e-194
9.83649e-194
-1.22749e-193
-9.11833e-194
-1.11543e-193
3.64622e-194
1.71279e-194
2.34955e-194
2.15493e-194
1.55637e-194
-9.19814e-195
-1.72041e-194
-9.46656e-195
-1.03357e-195
3.88244e-195
2.23604e-195
-4.50115e-208
1.22966e-207
-7.84037e-207
5.32431e-206
-2.60797e-205
1.68208e-204
-1.07448e-203
6.64748e-203
-3.99075e-202
2.31915e-201
-1.30131e-200
7.0278e-200
7.25697e-200
-3.82415e-199
-2.15274e-198
9.08758e-198
-2.0344e-198
1.37514e-196
-3.52233e-196
-2.70931e-196
7.54816e-196
5.73278e-195
-4.80689e-194
4.14284e-196
1.71837e-192
-6.1513e-192
1.1348e-191
-2.89104e-191
2.27413e-191
1.15259e-190
9.59302e-191
3.32331e-190
-5.15789e-190
6.50644e-190
-8.21588e-189
1.8642e-188
-8.43141e-190
-1.47099e-187
3.27258e-187
-1.2154e-186
3.08235e-186
-1.51567e-185
8.05659e-186
9.71642e-185
-5.41908e-184
8.49487e-184
1.70627e-183
-1.36785e-182
2.87694e-182
2.75173e-182
-1.78719e-181
2.15114e-182
1.50459e-181
2.48289e-181
1.0239e-181
-1.20985e-180
-4.73704e-181
7.97568e-181
4.37339e-180
-1.23801e-180
-2.26157e-180
7.12217e-180
-2.23561e-180
-1.72826e-179
-2.04358e-179
4.5201e-180
2.78732e-179
4.1249e-179
1.44214e-179
-2.03438e-179
-3.52557e-179
-4.27478e-179
-1.28211e-179
1.31656e-179
5.80391e-179
-2.04366e-179
8.51774e-179
1.66597e-178
-1.0587e-178
-2.01528e-178
1.27457e-178
-2.76093e-178
7.88791e-179
1.70313e-178
3.26322e-179
-1.37257e-178
4.4781e-179
-1.95141e-179
9.06425e-179
-1.90696e-180
-2.93807e-179
-4.05888e-179
7.17846e-180
7.66964e-180
6.09644e-180
2.05653e-180
-7.49125e-181
-1.3979e-180
-9.32572e-181
6.56892e-182
1.43359e-193
-3.6898e-193
2.81289e-192
-2.19272e-191
1.14504e-190
-1.00918e-189
6.33533e-189
-3.80673e-188
3.03109e-187
-1.24314e-186
9.34347e-186
-4.91283e-185
1.29146e-184
-8.69193e-184
2.82579e-183
-7.48554e-183
2.79261e-182
-4.44108e-182
1.52276e-181
4.07485e-181
-2.93936e-180
1.77614e-179
-5.10021e-179
3.91535e-178
-9.71386e-178
1.4305e-177
-4.03473e-177
-1.19566e-177
9.44959e-177
-1.04821e-175
8.8952e-176
2.10353e-175
4.42919e-176
-1.7177e-174
-7.3294e-175
3.53356e-174
1.88571e-173
-8.32749e-173
2.15999e-172
1.14004e-173
-2.23863e-171
2.32576e-171
3.17413e-171
-2.63713e-170
1.19856e-169
2.1952e-170
-6.75072e-169
2.00159e-168
-1.91298e-168
-1.99049e-167
5.4803e-167
4.11288e-167
-4.08619e-167
-1.59305e-166
-1.36571e-166
4.86992e-166
7.30836e-166
-2.5647e-166
-1.79389e-165
-1.55972e-165
7.12768e-166
3.90991e-165
3.63931e-165
-4.56883e-166
-5.25213e-165
-6.49459e-165
-2.57347e-165
3.53612e-165
7.76488e-165
7.83108e-165
-1.5377e-164
8.4871e-164
-1.077e-163
4.30067e-164
-1.74761e-163
-8.40004e-164
-7.08031e-165
1.78458e-163
2.487e-163
2.19981e-163
-1.28456e-163
-3.01478e-163
-7.48407e-164
-8.5286e-164
5.46387e-164
1.4443e-163
1.0827e-163
-3.31325e-164
-4.46495e-164
-4.35129e-164
-1.36607e-164
8.2525e-165
8.70782e-165
7.55359e-165
-5.67995e-167
-2.11758e-165
-1.2386e-165
-1.81842e-166
8.38694e-167
2.79019e-166
-2.58279e-179
7.57037e-179
-7.02557e-178
6.76754e-177
-6.45768e-176
4.92611e-175
-2.98996e-174
1.82145e-173
-1.07655e-172
6.01379e-172
-2.87333e-171
1.29269e-170
-5.86175e-170
2.34769e-169
-9.14017e-169
3.19194e-168
-8.64976e-168
1.59743e-167
9.65119e-168
-3.05166e-166
2.14918e-165
-9.78378e-165
4.04973e-164
-1.24457e-163
3.70009e-163
-8.68706e-163
1.24686e-162
5.46419e-163
-1.19553e-161
4.4513e-161
-1.02897e-160
8.01625e-161
4.23945e-160
-1.82399e-159
3.34426e-159
-1.5358e-159
-1.44768e-158
6.10454e-158
-8.23178e-158
-1.52525e-157
8.18591e-157
-1.41672e-156
-1.19013e-156
1.70708e-155
-3.93124e-155
-2.99383e-155
4.535e-154
-1.26348e-153
-8.03683e-154
1.13758e-152
-9.22812e-153
-3.35683e-152
5.7841e-153
6.60103e-152
6.56656e-152
-5.39965e-152
-2.05786e-151
-1.38208e-151
1.5187e-151
4.62502e-151
4.87228e-151
-3.54977e-151
-7.68035e-151
-7.98304e-151
-2.17685e-152
1.125e-150
-4.61689e-150
-8.07278e-150
2.40747e-149
3.97908e-149
1.52945e-149
-4.48547e-149
-1.45771e-148
-8.31576e-149
5.18225e-149
1.77165e-148
1.78404e-148
8.87501e-149
-1.10964e-148
-2.08691e-148
-1.54297e-148
-1.88737e-149
9.36368e-149
1.04697e-148
6.62239e-149
3.25842e-150
-3.0841e-149
-3.00639e-149
-1.32029e-149
-1.52441e-150
1.36676e-149
2.06162e-150
-2.30999e-150
-3.18139e-150
-4.79718e-151
1.15739e-150
1.75663e-150
5.39076e-151
-5.28762e-151
-5.9335e-151
-1.10376e-163
1.2666e-164
-2.42741e-163
1.56174e-162
-9.77868e-162
1.49597e-161
-8.12864e-161
4.8757e-160
-2.76335e-159
-3.2726e-158
1.69273e-157
-7.25308e-157
3.32036e-156
-1.55296e-155
6.01262e-155
-1.83953e-154
4.27278e-154
-2.75201e-154
-4.52339e-153
4.05778e-152
-2.46572e-151
1.06135e-150
-4.4725e-150
1.38474e-149
-4.32037e-149
1.04382e-148
-8.82658e-149
-2.74355e-148
2.27627e-147
-5.95426e-147
1.33611e-146
5.13009e-147
-9.86212e-146
3.12503e-145
-6.60546e-145
-3.71942e-145
3.07933e-144
-1.28248e-143
8.6154e-144
3.80424e-143
-9.79409e-143
1.11634e-142
1.39953e-142
-1.66903e-141
1.50663e-141
5.1741e-141
-2.77396e-140
5.41633e-140
2.20615e-139
-9.63896e-139
-3.11204e-139
3.8119e-138
6.25781e-139
-2.41897e-138
-4.01045e-138
-6.04113e-138
2.94494e-138
2.08816e-138
1.41638e-137
1.51136e-137
-2.97953e-137
1.18601e-137
-1.98306e-137
-1.70142e-136
-1.90371e-136
-4.56671e-136
2.49591e-135
5.48719e-135
-1.56405e-135
-1.02333e-134
-1.68155e-134
-6.32809e-135
2.00311e-134
3.01778e-134
2.66155e-134
-9.63583e-136
-2.95775e-134
-3.85952e-134
-1.9675e-134
4.04612e-136
1.89146e-134
2.23739e-134
1.0218e-134
1.36614e-136
-5.36498e-135
-5.51479e-135
-2.89849e-135
-3.88337e-136
7.9522e-136
1.90091e-135
-3.52362e-135
2.0416e-136
1.28913e-135
1.14418e-135
5.36991e-136
1.0854e-137
-2.17187e-136
-2.01521e-136
-9.43133e-137
5.51498e-138
-2.7104e-149
4.9676e-149
2.55009e-148
-1.74292e-147
-1.01061e-146
6.33752e-146
-3.58617e-145
2.00578e-144
-1.08267e-143
-3.19223e-144
1.80689e-143
-6.95063e-143
3.13422e-142
-1.23743e-141
4.36838e-141
-1.24654e-140
1.90933e-140
8.13963e-140
-1.02268e-138
6.7198e-138
-3.48372e-137
1.54221e-136
-5.93766e-136
1.96678e-135
-5.34628e-135
1.01877e-134
-2.16602e-135
-8.82634e-134
4.64047e-133
-1.38587e-132
1.87554e-132
5.78868e-132
-3.64414e-131
1.28096e-130
-1.4564e-130
-3.49321e-130
1.5912e-129
-3.84335e-129
-6.49804e-130
2.02669e-128
-3.11611e-128
-7.3611e-130
1.41807e-127
-2.4604e-127
8.5045e-128
-5.5146e-127
-1.77445e-126
4.57692e-126
-6.9663e-125
1.36023e-124
3.1712e-124
-5.89815e-124
-9.70669e-124
4.67892e-124
2.69581e-123
9.79197e-124
-1.47023e-123
-4.42133e-123
-1.16178e-122
-1.00422e-122
2.17428e-122
7.41824e-122
1.36235e-121
-1.02394e-121
-5.389e-121
-7.3166e-121
3.18208e-121
2.10685e-120
2.17629e-120
-9.18433e-121
-4.44425e-120
-5.14908e-120
-1.99663e-120
3.1267e-120
6.74358e-120
6.47036e-120
2.70718e-120
-1.93333e-120
-4.71805e-120
-4.58832e-120
-2.42673e-120
1.67721e-122
1.43472e-120
1.56386e-120
9.30474e-121
2.21429e-121
-1.72389e-121
-2.21523e-121
-1.85782e-121
4.01504e-121
-2.02877e-120
7.01859e-120
2.3467e-120
1.09156e-119
-6.25147e-120
-7.82552e-120
-1.17285e-119
-1.00865e-120
3.67001e-120
2.9545e-120
-1.1026e-133
1.37749e-133
-7.75431e-133
4.62062e-132
-2.3393e-131
1.24323e-130
-6.41865e-130
2.87272e-129
-1.34268e-128
5.97727e-128
-2.89973e-127
9.8831e-127
-2.7907e-126
1.19343e-125
-1.89394e-125
7.34728e-125
-1.28944e-124
3.45107e-124
-3.6992e-124
-1.78389e-123
1.03744e-122
-2.93403e-122
1.35735e-121
-5.28386e-121
2.50647e-121
1.68215e-120
1.50586e-120
-2.92274e-119
1.07084e-118
-1.81233e-118
-2.47708e-119
1.78161e-117
-7.18427e-117
1.42309e-116
-1.67507e-117
-1.01962e-115
4.76804e-115
-7.64169e-115
-1.47706e-114
8.90673e-114
-1.52592e-113
-1.69895e-113
1.17299e-112
-1.43665e-112
-2.99105e-112
1.77689e-111
-1.94055e-111
-6.56467e-111
1.72577e-110
5.67462e-111
-8.57969e-110
1.50307e-110
2.82222e-109
6.54268e-110
-9.91644e-109
-8.80664e-109
2.6429e-108
5.48502e-108
-1.55953e-108
-1.70906e-107
-1.87355e-107
1.8211e-107
6.65711e-107
5.0325e-107
-3.03885e-107
-2.40844e-106
-1.94865e-106
1.05064e-106
3.89886e-106
1.58377e-106
-2.23825e-106
2.98841e-105
-7.68566e-106
-5.05965e-105
-6.72291e-105
-4.46911e-105
4.61146e-105
1.74718e-104
1.23335e-104
2.5717e-105
-9.63933e-105
-1.03248e-104
-6.93899e-105
-3.17659e-105
-1.43068e-105
-1.91063e-106
-1.13538e-104
1.12238e-105
1.70519e-104
1.57871e-104
5.46997e-105
-9.46402e-106
-9.66237e-105
-1.35924e-104
-6.72402e-105
-2.13525e-105
5.67654e-105
6.96202e-105
4.24833e-105
-6.89849e-106
1.87284e-119
-3.32642e-119
1.63718e-118
-9.44979e-118
2.27053e-117
-1.23219e-116
6.80836e-116
-3.57842e-115
1.81826e-114
-1.7232e-113
8.07845e-113
-1.79016e-112
7.80309e-112
-3.14895e-111
6.5494e-111
-2.35199e-110
8.34099e-111
-1.92659e-110
-1.36821e-109
1.19526e-108
-6.43479e-108
2.76987e-107
-1.00162e-106
3.03604e-106
-7.29264e-106
2.62913e-106
4.82328e-106
-3.63309e-106
-7.50334e-105
-1.07375e-105
1.1262e-104
-1.29372e-103
4.20365e-103
-6.13673e-103
-2.20952e-102
3.67341e-102
-3.17153e-101
2.13915e-101
2.16459e-100
-7.34452e-100
6.98081e-100
3.92654e-99
-1.07931e-98
-4.61993e-100
5.27143e-98
-9.7617e-98
-1.07264e-97
1.08718e-96
-2.14337e-96
-5.50157e-96
2.00806e-95
1.03804e-95
-6.36127e-95
-4.15603e-95
1.23753e-94
2.23624e-94
-8.71827e-95
-6.62941e-94
-5.85806e-94
8.04173e-94
2.46339e-93
1.4964e-93
-3.11704e-93
-4.57706e-93
-1.47584e-92
2.8998e-92
1.95977e-92
1.18678e-92
-3.61101e-92
3.25337e-91
-1.04394e-91
-1.35799e-90
-1.01266e-90
4.32047e-91
1.53932e-90
3.42025e-90
1.86741e-90
-7.31046e-91
-2.71985e-90
-2.59032e-90
-1.90614e-90
-3.00528e-90
-1.52799e-90
6.83718e-91
-1.23375e-90
3.47912e-90
1.21688e-89
7.07066e-90
-9.4805e-92
-3.44023e-90
-8.39767e-90
-6.3537e-90
-1.99888e-90
-2.88397e-91
2.88683e-90
2.57745e-90
1.18616e-90
4.72637e-92
-4.42884e-91
-3.18881e-91
-1.0793e-104
1.81334e-104
-1.57259e-103
7.28903e-103
-3.58045e-102
1.96101e-101
-7.4421e-101
3.79334e-100
-1.87977e-99
1.04411e-98
-4.09178e-98
1.5036e-97
-4.03509e-97
1.16263e-96
-2.79432e-96
1.36974e-95
-3.72792e-95
5.66585e-95
5.59601e-95
-3.52764e-94
2.25421e-93
-8.18817e-93
2.29803e-92
-4.44194e-92
9.55658e-92
-8.72402e-92
-3.72043e-91
1.81306e-90
-3.7275e-90
3.46395e-90
2.47e-89
-1.53219e-88
3.19296e-88
-2.32821e-88
-1.19072e-87
6.37836e-87
-1.05466e-86
-1.27197e-86
7.58977e-86
-8.91578e-86
-1.36534e-85
7.24778e-85
-1.36597e-84
-2.88866e-84
1.25452e-83
4.30759e-84
-4.71218e-83
-6.88034e-83
-8.67816e-83
1.56287e-81
-6.61751e-82
-5.75872e-81
6.85546e-81
-1.13312e-80
-1.6253e-80
5.5506e-80
9.01348e-80
-1.69136e-79
-4.56773e-79
2.95393e-79
1.9121e-78
1.2003e-78
-4.87184e-78
-1.38745e-77
-1.45138e-79
4.14164e-77
5.95553e-77
-5.772e-78
-1.35139e-76
-3.08566e-76
-1.5555e-76
1.87377e-76
8.16238e-76
7.43705e-76
1.65406e-76
-5.81307e-76
-1.18651e-75
-1.51942e-75
-1.50647e-75
-8.31144e-76
-5.49402e-76
3.95911e-76
3.05967e-75
5.05042e-75
4.60269e-75
2.94641e-75
-1.98793e-75
-5.24606e-75
-5.79967e-75
-3.78164e-75
-1.36753e-75
2.27079e-75
2.52819e-75
2.1413e-75
9.31169e-76
1.08014e-76
-5.20386e-76
-4.27758e-76
-2.20825e-76
7.12896e-79
-3.26961e-90
5.29804e-90
-4.03747e-89
2.29536e-88
-1.32884e-87
6.6747e-87
-3.32635e-86
1.54704e-85
-6.88562e-85
2.92618e-84
-1.23566e-83
4.95716e-83
-1.97251e-82
6.65108e-82
-1.94426e-81
5.44198e-81
-1.29768e-80
2.7498e-80
-3.34739e-80
-7.36017e-80
4.22918e-79
-1.52222e-78
4.10177e-78
-8.28247e-78
5.81578e-78
-8.59741e-78
-3.99238e-77
2.28153e-76
-2.52876e-76
-1.7728e-76
4.22812e-75
-1.3105e-74
2.6519e-74
4.93755e-75
-2.05178e-73
5.52748e-73
-2.89995e-73
-2.54009e-72
1.03066e-71
-1.07273e-71
-4.80733e-71
1.59738e-70
5.11495e-71
-1.13149e-69
1.28093e-69
7.10161e-69
-2.26579e-68
-1.53523e-68
1.95454e-67
-1.54253e-67
-8.88096e-67
7.65165e-67
3.77303e-66
-2.18423e-66
-1.18792e-65
3.03453e-66
3.54256e-65
7.70225e-66
-1.01096e-64
-1.08625e-64
2.69246e-64
5.55274e-64
-1.17589e-64
-1.52393e-63
-2.87076e-63
2.7832e-63
1.24442e-62
8.50012e-63
-1.59962e-62
-5.35531e-62
-8.14437e-62
-1.14607e-62
1.06212e-61
2.50372e-61
4.36636e-61
3.49276e-61
4.08303e-61
-4.94628e-62
-6.37347e-61
-8.10449e-61
-2.08258e-60
-2.17361e-60
-5.04592e-61
1.00427e-60
2.31805e-60
2.42693e-60
2.01154e-60
7.16384e-61
-4.74947e-61
-1.16692e-60
-1.2343e-60
-8.50432e-61
-3.5001e-61
1.39874e-62
1.84439e-61
1.82925e-61
1.0707e-61
2.33013e-62
-2.29268e-62
-2.422e-62
-1.73573e-76
2.3621e-76
-1.76479e-75
9.54019e-75
9.38524e-74
-4.9605e-73
2.44812e-72
-1.18557e-71
5.50322e-71
-2.45033e-70
1.04217e-69
-4.21526e-69
1.61183e-68
-5.78049e-68
1.92215e-67
-5.82139e-67
1.55582e-66
-3.42623e-66
4.95885e-66
4.82003e-66
-3.7152e-65
1.81923e-64
-4.77533e-64
7.90735e-64
9.12225e-64
1.3368e-63
1.59394e-63
-1.19578e-62
-7.01637e-63
1.87166e-62
-2.64969e-61
6.15304e-61
-7.65129e-61
-1.83613e-60
1.0447e-59
-1.76184e-59
-2.61124e-59
2.06367e-58
-3.80721e-58
-4.37621e-58
3.36432e-57
-2.73694e-57
-2.234e-56
5.99659e-56
1.26958e-55
-9.58586e-55
1.02629e-54
5.98365e-54
-1.58071e-53
-1.22169e-53
1.10711e-52
4.49428e-53
-2.22514e-52
-2.19139e-52
8.59586e-52
5.84142e-52
-2.22288e-51
-2.22139e-51
2.10298e-51
1.45042e-50
1.39166e-50
-1.25598e-49
-5.77256e-50
4.28457e-49
4.14786e-49
-4.36188e-49
-2.08844e-48
-1.06283e-48
2.42094e-48
6.02138e-48
1.02442e-47
8.31714e-48
-1.28903e-48
-1.51964e-47
-5.76486e-47
-7.54364e-47
-1.65653e-46
-1.56457e-46
-6.40197e-47
-1.36019e-46
6.50007e-46
5.20713e-46
3.54516e-46
1.33505e-46
-7.48457e-47
-2.14646e-46
-2.65396e-46
-2.39686e-46
-1.69319e-46