/*--------------------------------*- C++ -*----------------------------------*\
  =========                 |
  \\      /  F ield         | OpenFOAM: The Open Source CFD Toolbox
   \\    /   O peration     | Website:  https://openfoam.org
    \\  /    A nd           | Version:  13
     \\/     M anipulation  |
\*---------------------------------------------------------------------------*/
FoamFile
{
    format      ascii;
    class       volScalarField;
    location    "7.6";
    object      T;
}
// * * * * * * * * * * * * * * * * * * * * * * * * * * * * * * * * * * * * * //

dimensions      [0 0 0 1 0 0 0];

internalField   nonuniform List<scalar> 
10000
(
-2.24466e-39
3.82003e-39
2.49602e-38
2.62709e-38
-1.17848e-37
-4.36126e-37
-1.46322e-37
2.60112e-36
6.65153e-36
-2.31423e-36
-4.76765e-35
-9.07206e-35
9.49281e-35
7.65792e-34
1.13833e-33
-1.98599e-33
-1.11025e-32
-1.36652e-32
3.17055e-32
1.47957e-31
1.64565e-31
-4.17402e-31
-1.82858e-30
-2.05532e-30
4.56256e-30
2.09141e-29
2.63812e-29
-3.92878e-29
-2.1778e-28
-3.31468e-28
2.10529e-28
1.991e-27
3.83409e-27
5.94962e-28
-1.48347e-26
-3.83949e-26
-3.28207e-26
7.34265e-26
3.08601e-25
4.77593e-25
1.9718e-26
-1.70967e-24
-4.33039e-24
-4.80136e-24
2.8842e-24
2.34729e-23
4.98999e-23
5.11381e-23
-2.66488e-23
-2.2537e-22
-4.99143e-22
-6.28047e-22
-2.02694e-22
1.21641e-21
3.71436e-21
6.50718e-21
7.57289e-21
3.79434e-21
-8.14707e-21
-3.02527e-20
-6.16403e-20
-9.77665e-20
-1.31101e-19
-1.53291e-19
-1.5808e-19
-1.4372e-19
-1.13752e-19
-7.57512e-20
-3.85906e-20
-9.4555e-21
8.13612e-21
1.46449e-20
1.33301e-20
8.37351e-21
3.22755e-21
-2.25175e-22
-1.63187e-21
-1.58055e-21
-9.12531e-22
-2.58159e-22
1.11401e-22
2.03453e-22
1.43831e-22
5.13271e-23
-1.33998e-23
-4.11861e-23
-4.63037e-23
-4.39411e-23
-4.17359e-23
-4.11164e-23
-4.12401e-23
-4.13899e-23
-4.14173e-23
-4.14011e-23
-4.13935e-23
-4.13944e-23
-4.13956e-23
-4.13955e-23
-4.13954e-23
-4.13954e-23
3.81938e-39
6.54959e-38
7.50042e-38
-3.0107e-37
-1.14891e-36
-3.6961e-37
6.91194e-36
1.70697e-35
-8.59155e-36
-1.27333e-34
-2.18343e-34
3.18824e-34
2.01509e-33
2.44818e-33
-6.54685e-33
-2.84226e-32
-2.48855e-32
1.04313e-31
3.66493e-31
2.47216e-31
-1.3949e-30
-4.39659e-30
-2.70312e-30
1.60065e-29
4.94376e-29
3.45584e-29
-1.56069e-28
-5.17494e-28
-4.74467e-28
1.2245e-27
4.91713e-27
6.15915e-27
-6.35793e-27
-4.03551e-26
-6.93199e-26
-4.09996e-27
2.59125e-25
6.3411e-25
5.58197e-25
-9.58655e-25
-4.30188e-24
-7.12844e-24
-2.8147e-24
1.6711e-23
5.02802e-23
7.17041e-23
2.34489e-23
-1.56788e-22
-4.62181e-22
-7.18195e-22
-5.35473e-22
5.79668e-22
2.89333e-21
5.95663e-21
8.19123e-21
6.85752e-21
-1.38361e-21
-1.9381e-20
-4.82552e-20
-8.65425e-20
-1.30122e-19
-1.72979e-19
-2.08503e-19
-2.30884e-19
-2.36247e-19
-2.23379e-19
-1.94024e-19
-1.52703e-19
-1.05953e-19
-6.09955e-20
-2.40714e-20
1.03948e-21
1.37465e-20
1.63223e-20
1.26918e-20
6.89324e-21
1.85939e-21
-1.07858e-21
-1.96304e-21
-1.57149e-21
-7.67952e-22
-1.13696e-22
2.08883e-22
2.68807e-22
2.12025e-22
1.4658e-22
1.12558e-22
1.05264e-22
1.08188e-22
1.11084e-22
1.11807e-22
1.11563e-22
1.11358e-22
1.11342e-22
1.11371e-22
1.11378e-22
1.11375e-22
1.11374e-22
1.11374e-22
1.11374e-22
2.4959e-38
7.5e-38
-8.56411e-38
-7.09666e-37
-8.92345e-37
3.02413e-36
1.24787e-35
6.20873e-36
-6.91905e-35
-1.88166e-34
3.96004e-35
1.27028e-33
2.4941e-33
-2.34914e-33
-2.00596e-32
-2.98369e-32
5.11506e-32
2.82358e-31
3.34683e-31
-8.16634e-31
-3.62245e-30
-3.71455e-30
1.06362e-29
4.29025e-29
4.29057e-29
-1.15399e-28
-4.69952e-28
-5.19227e-28
1.01197e-27
4.70259e-27
6.2708e-27
-6.26001e-27
-4.16507e-26
-7.04608e-26
8.3204e-27
3.06375e-25
6.88809e-25
4.33282e-25
-1.60392e-24
-5.44477e-24
-7.15967e-24
2.29344e-24
3.05921e-23
6.6185e-23
5.84696e-23
-7.35974e-23
-3.66347e-22
-6.69912e-22
-5.37532e-22
6.5376e-22
3.16667e-21
6.0275e-21
6.36237e-21
-1.08726e-22
-1.66436e-20
-4.13798e-20
-6.34489e-20
-6.23598e-20
-1.3191e-20
1.02562e-19
2.84489e-19
5.05767e-19
7.16479e-19
8.58806e-19
8.88654e-19
7.9392e-19
6.00294e-19
3.61439e-19
1.38188e-19
-2.33293e-20
-1.04924e-19
-1.16452e-19
-8.51309e-20
-4.09549e-20
-5.35982e-21
1.30506e-20
1.62035e-20
1.10056e-20
4.17323e-21
-4.72965e-22
-2.14997e-21
-1.82916e-21
-8.22777e-22
2.22328e-23
4.53136e-22
5.71445e-22
5.57581e-22
5.26652e-22
5.13576e-22
5.13268e-22
5.15441e-22
5.16256e-22
5.16146e-22
5.15989e-22
5.15973e-22
5.15993e-22
5.15997e-22
5.15995e-22
5.15995e-22
5.15995e-22
2.62719e-38
-3.01081e-37
-7.09691e-37
6.08153e-37
6.18155e-36
9.02326e-36
-2.20857e-35
-1.0679e-34
-8.64295e-35
4.95591e-34
1.61779e-33
4.52226e-34
-8.86897e-33
-2.21631e-32
3.51453e-33
1.36396e-31
2.82782e-31
-1.35269e-31
-1.86418e-30
-3.4581e-30
2.13782e-30
2.29914e-29
4.13742e-29
-2.1773e-29
-2.56049e-28
-4.85091e-28
1.04143e-28
2.53181e-27
5.44995e-27
1.31211e-27
-2.12394e-26
-5.62428e-26
-4.29498e-26
1.3441e-25
5.02178e-25
6.70957e-25
-3.67703e-25
-3.5235e-24
-7.25816e-24
-4.70025e-24
1.50608e-23
5.45637e-23
8.36035e-23
2.17056e-23
-2.28633e-22
-6.53829e-22
-9.2832e-22
-3.05009e-22
2.09993e-21
6.36803e-21
1.03327e-20
8.52591e-21
-6.88943e-21
-4.16937e-20
-9.16713e-20
-1.33871e-19
-1.22448e-19
5.0141e-21
3.08079e-19
8.14954e-19
1.49604e-18
2.25367e-18
2.93817e-18
3.38902e-18
3.48781e-18
3.20109e-18
2.5945e-18
1.81099e-18
1.02238e-18
3.74607e-19
-5.12409e-20
-2.49449e-19
-2.72498e-19
-1.98507e-19
-9.92753e-20
-2.07215e-20
2.07962e-20
3.03918e-20
2.23233e-20
9.93632e-21
8.62764e-22
-3.01713e-21
-3.1651e-21
-1.82287e-21
-5.30981e-22
1.7051e-22
3.78311e-22
3.64661e-22
3.17096e-22
2.96309e-22
2.95803e-22
2.99198e-22
3.00389e-22
3.00175e-22
2.99946e-22
2.99936e-22
2.99965e-22
2.99969e-22
2.99966e-22
2.99966e-22
-1.17839e-37
-1.14891e-36
-8.92407e-37
6.18142e-36
1.91107e-35
-2.01094e-36
-1.32492e-34
-2.66613e-34
2.9675e-34
2.33796e-33
3.11855e-33
-7.81713e-33
-3.58106e-32
-3.03053e-32
1.4568e-31
4.9203e-31
2.41427e-31
-2.22934e-30
-6.22254e-30
-1.64644e-30
2.94311e-29
7.39243e-29
1.38755e-29
-3.40939e-28
-8.34172e-28
-2.28262e-28
3.44986e-27
8.90443e-27
4.53695e-27
-2.9538e-26
-8.78807e-26
-7.57144e-26
1.95287e-25
7.67566e-25
1.00389e-24
-6.84363e-25
-5.50364e-24
-1.04251e-23
-4.3553e-24
2.73952e-23
8.09912e-23
9.98531e-23
-3.25982e-23
-4.07756e-22
-8.85695e-22
-8.82548e-22
5.41121e-22
3.94447e-21
8.14456e-21
9.04901e-21
2.5629e-22
-2.31882e-20
-5.82696e-20
-8.79785e-20
-8.10412e-20
-1.36236e-21
1.74246e-19
4.38406e-19
7.47364e-19
1.03453e-18
1.23966e-18
1.33833e-18
1.35335e-18
1.33867e-18
1.34393e-18
1.38098e-18
1.41398e-18
1.38029e-18
1.22942e-18
9.56324e-19
6.08855e-19
2.66367e-19
3.22422e-21
-1.41625e-19
-1.74221e-19
-1.33277e-19
-6.66825e-20
-1.0769e-20
1.88284e-20
2.43179e-20
1.6538e-20
6.11513e-21
-1.08154e-21
-4.01558e-21
-4.2249e-21
-3.54791e-21
-3.01308e-21
-2.8306e-21
-2.84195e-21
-2.88387e-21
-2.89979e-21
-2.89817e-21
-2.89489e-21
-2.89428e-21
-2.89465e-21
-2.89481e-21
-2.89478e-21
-2.89475e-21
-2.89476e-21
-2.89476e-21
-4.36111e-37
-3.69562e-37
3.02412e-36
9.02298e-36
-2.0116e-36
-6.69708e-35
-1.30269e-34
1.70381e-34
1.23336e-33
1.56243e-33
-4.53824e-33
-1.98093e-32
-1.50784e-32
8.84729e-32
2.861e-31
1.06952e-31
-1.43513e-30
-3.81007e-30
-3.98566e-31
2.02834e-29
4.78086e-29
-9.79892e-31
-2.54483e-28
-5.73633e-28
-1.34143e-29
2.83806e-27
6.59226e-27
1.53465e-27
-2.76396e-26
-7.14213e-26
-4.08441e-26
2.23493e-25
7.05096e-25
7.05419e-25
-1.298e-24
-6.00581e-24
-9.10932e-24
1.94375e-24
4.0069e-23
8.95982e-23
6.8559e-23
-1.59207e-22
-6.3444e-22
-1.00518e-21
-3.18758e-22
2.55951e-21
7.40573e-21
1.03561e-20
2.97182e-21
-2.38846e-20
-6.90618e-20
-1.06169e-19
-7.61916e-20
9.53835e-20
4.45817e-19
8.96709e-19
1.18907e-18
8.88852e-19
-4.94799e-19
-3.29013e-18
-7.42448e-18
-1.22942e-17
-1.68481e-17
-1.98982e-17
-2.05474e-17
-1.85474e-17
-1.44133e-17
-9.23436e-18
-4.26726e-18
-5.00284e-19
1.62379e-18
2.23299e-18
1.8348e-18
1.03438e-18
3.00262e-19
-1.40865e-19
-2.79713e-19
-2.26757e-19
-1.10443e-19
-1.57089e-20
2.89317e-20
3.3133e-20
1.90214e-20
3.83451e-21
-5.29723e-21
-8.5979e-21
-8.87481e-21
-8.40032e-21
-8.104e-21
-8.05198e-21
-8.08196e-21
-8.10142e-21
-8.10257e-21
-8.09983e-21
-8.09907e-21
-8.09933e-21
-8.09946e-21
-8.09944e-21
-8.09943e-21
-8.09943e-21
-1.46339e-37
6.91208e-36
1.2479e-35
-2.20857e-35
-1.32493e-34
-1.30273e-34
6.09006e-34
2.1538e-33
6.56375e-34
-1.23279e-32
-3.06517e-32
9.93415e-33
2.07829e-31
3.92985e-31
-3.63518e-31
-3.07047e-30
-4.69572e-30
6.78372e-30
4.08755e-29
5.45078e-29
-9.49274e-29
-4.97829e-28
-6.38176e-28
1.05761e-27
5.56484e-27
7.60755e-27
-9.01851e-27
-5.642e-26
-8.95785e-26
4.51998e-26
5.01809e-25
9.85775e-25
1.99065e-25
-3.637e-24
-9.50578e-24
-8.25424e-24
1.74179e-23
7.40365e-23
1.14835e-22
7.85315e-24
-3.96349e-22
-1.00938e-21
-1.13678e-21
5.85747e-22
5.25472e-21
1.13793e-20
1.21849e-20
-4.3236e-21
-4.82284e-20
-1.116e-19
-1.49079e-19
-7.11608e-20
2.27826e-19
7.92798e-19
1.49361e-18
1.92119e-18
1.36802e-18
-1.04151e-18
-6.06002e-18
-1.39401e-17
-2.41221e-17
-3.51552e-17
-4.49522e-17
-5.13436e-17
-5.27527e-17
-4.87324e-17
-4.01425e-17
-2.88847e-17
-1.7298e-17
-7.45213e-18
-6.0854e-19
2.97602e-18
3.88573e-18
3.14891e-18
1.80347e-18
5.90578e-19
-1.50066e-19
-4.10936e-19
-3.61042e-19
-1.9599e-19
-4.89248e-20
2.96903e-20
4.77425e-20
3.5011e-20
1.6961e-20
5.40498e-21
1.23967e-21
1.03042e-21
1.73758e-21
2.12866e-21
2.17124e-21
2.11896e-21
2.0946e-21
2.0963e-21
2.10043e-21
2.10092e-21
2.10043e-21
2.10033e-21
2.10037e-21
2.10038e-21
2.601e-36
1.70698e-35
6.20962e-36
-1.06788e-34
-2.66613e-34
1.70372e-34
2.15378e-33
3.42033e-33
-6.80719e-33
-3.64418e-32
-3.46965e-32
1.52414e-31
5.39564e-31
2.45101e-31
-2.66388e-30
-7.20537e-30
-4.43966e-31
3.95524e-29
8.91746e-29
-1.85514e-29
-5.16673e-28
-1.04813e-27
3.26113e-28
6.02256e-27
1.18846e-26
-2.55883e-27
-6.25159e-26
-1.29781e-25
-8.32529e-27
5.65356e-25
1.33367e-24
6.25802e-25
-4.20524e-24
-1.23564e-23
-1.16921e-23
2.18214e-23
9.67388e-23
1.44787e-22
-1.79677e-23
-5.6976e-22
-1.29276e-21
-1.10916e-21
1.72577e-21
7.82003e-21
1.32918e-20
7.55952e-21
-2.2362e-20
-7.68643e-20
-1.22447e-19
-8.26314e-20
1.31951e-19
5.40602e-19
9.84815e-19
1.07543e-18
2.915e-19
-1.73193e-18
-4.8237e-18
-8.03442e-18
-9.78272e-18
-8.47534e-18
-3.38772e-18
4.6602e-18
1.33027e-17
1.94586e-17
2.06707e-17
1.62804e-17
7.79405e-18
-1.78006e-18
-9.27829e-18
-1.27035e-17
-1.18735e-17
-8.16675e-18
-3.63049e-18
1.27904e-21
1.90129e-18
2.17941e-18
1.50049e-18
5.98658e-19
-5.18331e-20
-3.1613e-19
-2.92872e-19
-1.52487e-19
-2.20873e-20
4.96707e-20
7.06712e-20
6.75469e-20
6.04803e-20
5.69466e-20
5.65235e-20
5.70175e-20
5.73033e-20
5.73187e-20
5.72743e-20
5.72601e-20
5.7264e-20
5.72667e-20
5.72665e-20
5.72662e-20
5.72662e-20
5.72662e-20
6.65134e-36
-8.59206e-36
-6.91903e-35
-8.64264e-35
2.96756e-34
1.23336e-33
6.56337e-34
-6.80727e-33
-1.91307e-32
2.31017e-33
1.27102e-31
2.65e-31
-2.01396e-31
-2.05989e-30
-3.37133e-30
4.63245e-30
2.99458e-29
4.08343e-29
-7.61732e-29
-3.98172e-28
-4.90885e-28
1.00818e-27
4.88819e-27
6.03144e-27
-1.08891e-26
-5.53105e-26
-7.53186e-26
9.02546e-26
5.67573e-25
9.17471e-25
-4.16464e-25
-5.08997e-24
-1.03031e-23
-2.74885e-24
3.68873e-23
1.00372e-22
9.34494e-23
-1.71968e-22
-7.8432e-22
-1.26682e-21
-1.85895e-22
4.18023e-21
1.10447e-20
1.28655e-20
-5.70787e-21
-5.7521e-20
-1.26365e-19
-1.35575e-19
5.10602e-20
5.44644e-19
1.24217e-18
1.60759e-18
6.24138e-19
-2.82193e-18
-8.99628e-18
-1.604e-17
-1.90416e-17
-1.03649e-17
1.81682e-17
7.15434e-17
1.47689e-16
2.35546e-16
3.16704e-16
3.70723e-16
3.82292e-16
3.47161e-16
2.74045e-16
1.8152e-16
9.12893e-17
2.08587e-17
-2.12933e-17
-3.64378e-17
-3.26583e-17
-2.02259e-17
-7.55503e-18
8.27598e-19
4.14818e-18
3.91302e-18
2.21276e-18
5.9049e-19
-3.06543e-19
-5.14814e-19
-3.54427e-19
-1.20175e-19
4.06914e-20
1.08551e-19
1.20417e-19
1.14273e-19
1.08817e-19
1.07343e-19
1.07675e-19
1.08044e-19
1.08107e-19
1.08066e-19
1.08048e-19
1.0805e-19
1.08053e-19
1.08053e-19
1.08053e-19
1.08053e-19
-2.314e-36
-1.27335e-34
-1.8817e-34
4.95589e-34
2.33798e-33
1.56247e-33
-1.23279e-32
-3.64419e-32
2.30973e-33
2.37399e-31
4.94496e-31
-4.02441e-31
-3.87439e-30
-5.99268e-30
9.73982e-30
5.59199e-29
6.72521e-29
-1.64408e-28
-7.32669e-28
-7.3861e-28
2.23875e-27
8.85552e-27
8.44477e-27
-2.54251e-26
-9.9256e-26
-1.0282e-25
2.36495e-25
1.02229e-24
1.27622e-24
-1.62892e-24
-9.40531e-24
-1.49657e-23
4.61096e-24
7.29008e-23
1.54154e-22
7.72973e-23
-4.15609e-22
-1.29488e-21
-1.57795e-21
9.01463e-22
7.84837e-21
1.61032e-20
1.28337e-20
-2.21282e-20
-9.71666e-20
-1.725e-19
-1.3023e-19
1.97799e-19
8.92103e-19
1.70458e-18
1.84201e-18
2.23302e-20
-4.94059e-18
-1.29697e-17
-2.13122e-17
-2.36166e-17
-1.03532e-17
2.89288e-17
1.01813e-16
2.089e-16
3.41067e-16
4.7962e-16
5.99846e-16
6.77226e-16
6.94365e-16
6.46315e-16
5.42338e-16
4.03414e-16
2.56268e-16
1.25975e-16
2.96658e-17
-2.66426e-17
-4.7375e-17
-4.36685e-17
-2.84197e-17
-1.20983e-17
-6.07404e-19
4.62967e-18
5.10444e-18
3.28785e-18
1.2045e-18
-1.38998e-19
-6.23671e-19
-5.75538e-19
-3.62405e-19
-1.96195e-19
-1.25616e-19
-1.16364e-19
-1.25437e-19
-1.31761e-19
-1.32866e-19
-1.32166e-19
-1.31747e-19
-1.31746e-19
-1.3181e-19
-1.31822e-19
-1.31815e-19
-1.31813e-19
-1.31813e-19
-1.31813e-19
-4.76749e-35
-2.18344e-34
3.95884e-35
1.61777e-33
3.11857e-33
-4.53812e-33
-3.06515e-32
-3.46966e-32
1.27101e-31
4.94494e-31
2.5024e-31
-2.55136e-30
-7.02569e-30
2.55609e-31
4.23128e-29
9.04482e-29
-4.59328e-29
-6.1141e-28
-1.08748e-27
9.39035e-28
7.90479e-27
1.2601e-26
-1.27973e-26
-9.2577e-26
-1.43978e-25
1.2848e-25
9.81482e-25
1.62247e-24
-8.36728e-25
-9.26124e-24
-1.75427e-23
-1.14117e-25
7.45497e-23
1.73546e-22
9.93484e-23
-4.62956e-22
-1.47644e-21
-1.70201e-21
1.51813e-21
9.85051e-21
1.80073e-20
8.4816e-21
-4.13385e-20
-1.27745e-19
-1.73197e-19
-1.24552e-20
5.06731e-19
1.26901e-18
1.60147e-18
2.81731e-19
-3.75512e-18
-9.94011e-18
-1.4521e-17
-1.04322e-17
9.89099e-18
4.86041e-17
9.58192e-17
1.26795e-16
1.07294e-16
7.80938e-18
-1.78447e-16
-4.23322e-16
-6.6621e-16
-8.33564e-16
-8.68214e-16
-7.54543e-16
-5.26462e-16
-2.53592e-16
-1.25385e-17
1.42449e-16
1.95793e-16
1.6825e-16
1.00232e-16
3.12647e-17
-1.43616e-17
-3.11556e-17
-2.70103e-17
-1.42968e-17
-2.74402e-18
3.40467e-18
4.48904e-18
2.89498e-18
8.59875e-19
-4.89705e-19
-1.03034e-18
-1.09489e-18
-1.01724e-18
-9.59326e-19
-9.44933e-19
-9.49342e-19
-9.53765e-19
-9.54558e-19
-9.54052e-19
-9.53794e-19
-9.53817e-19
-9.53859e-19
-9.5386e-19
-9.53856e-19
-9.53855e-19
-9.53856e-19
-9.07181e-35
3.18829e-34
1.27028e-33
4.5219e-34
-7.81718e-33
-1.98092e-32
9.93455e-33
1.52415e-31
2.65e-31
-4.02445e-31
-2.55137e-30
-3.0784e-30
8.86442e-30
3.8103e-29
3.17457e-29
-1.51939e-28
-5.21427e-28
-3.09372e-28
2.2034e-27
6.66948e-27
3.27887e-27
-2.78015e-26
-8.06504e-26
-4.32115e-26
3.05405e-25
9.2107e-25
6.62676e-25
-2.83929e-24
-9.76824e-24
-9.98914e-24
2.04182e-23
9.2841e-23
1.3311e-22
-7.66478e-23
-7.42222e-22
-1.48301e-21
-6.17913e-22
4.34886e-21
1.30686e-20
1.57129e-20
-9.70184e-21
-8.13907e-20
-1.68693e-19
-1.38817e-19
2.27191e-19
1.03932e-18
1.89685e-18
1.51294e-18
-2.05692e-18
-9.90981e-18
-1.94416e-17
-2.15256e-17
-7.9492e-19
5.74405e-17
1.52459e-16
2.49787e-16
2.69588e-16
9.45681e-17
-3.95212e-16
-1.26654e-15
-2.47775e-15
-3.85349e-15
-5.11202e-15
-5.94523e-15
-6.12399e-15
-5.58466e-15
-4.45696e-15
-3.01898e-15
-1.59894e-15
-4.66977e-16
2.38427e-16
5.24863e-16
5.06132e-16
3.35341e-16
1.43753e-16
7.43518e-18
-5.42781e-17
-5.91738e-17
-3.72872e-17
-1.2911e-17
2.23418e-18
7.07714e-18
5.68811e-18
2.49181e-18
1.72832e-20
-1.14545e-18
-1.41351e-18
-1.34609e-18
-1.25926e-18
-1.22976e-18
-1.23245e-18
-1.23847e-18
-1.23996e-18
-1.23941e-18
-1.23907e-18
-1.23909e-18
-1.23913e-18
-1.23914e-18
-1.23913e-18
-1.23913e-18
9.49257e-35
2.0151e-33
2.49415e-33
-8.86895e-33
-3.58108e-32
-1.50788e-32
2.07829e-31
5.39565e-31
-2.01392e-31
-3.87438e-30
-7.02571e-30
8.86439e-30
6.18344e-29
8.07213e-29
-1.88537e-28
-8.77795e-28
-8.47833e-28
3.04517e-27
1.13699e-26
8.72358e-27
-4.09095e-26
-1.36691e-25
-9.69133e-26
4.68481e-25
1.53574e-24
1.21618e-24
-4.52113e-24
-1.60054e-23
-1.61119e-23
3.45315e-23
1.50789e-22
2.02298e-22
-1.63261e-22
-1.2197e-21
-2.21627e-21
-4.15482e-22
7.61521e-21
1.97912e-20
1.92348e-20
-2.55612e-20
-1.30409e-19
-2.28824e-19
-1.16835e-19
4.72605e-19
1.54678e-18
2.34343e-18
1.06437e-18
-4.40042e-18
-1.42159e-17
-2.33633e-17
-1.96894e-17
1.33081e-17
8.64677e-17
1.89046e-16
2.73547e-16
2.51412e-16
7.85295e-18
-5.63812e-16
-1.51844e-15
-2.82316e-15
-4.3454e-15
-5.87181e-15
-7.15307e-15
-7.9607e-15
-8.14009e-15
-7.64709e-15
-6.56054e-15
-5.0673e-15
-3.42131e-15
-1.8846e-15
-6.6535e-16
1.27668e-16
4.98737e-16
5.43267e-16
4.01048e-16
2.05005e-16
4.51231e-17
-4.25677e-17
-6.47599e-17
-4.87988e-17
-2.23193e-17
-2.10048e-18
7.19464e-18
8.39798e-18
6.27756e-18
4.1346e-18
3.08065e-18
2.87713e-18
2.97926e-18
3.07022e-18
3.09111e-18
3.0828e-18
3.07649e-18
3.07611e-18
3.07701e-18
3.07722e-18
3.07713e-18
3.07709e-18
3.0771e-18
3.0771e-18
7.65773e-34
2.4482e-33
-2.34899e-33
-2.21628e-32
-3.03054e-32
8.84715e-32
3.92982e-31
2.45101e-31
-2.05987e-30
-5.99266e-30
2.55608e-31
3.81029e-29
8.07211e-29
-5.62063e-29
-6.03797e-28
-9.87294e-28
1.32253e-27
8.50415e-27
1.13688e-26
-2.14478e-26
-1.08798e-25
-1.28907e-25
2.76942e-25
1.2788e-24
1.4926e-24
-2.91288e-24
-1.38085e-23
-1.76514e-23
2.3785e-23
1.34964e-22
2.0455e-22
-1.18174e-22
-1.15209e-21
-2.18616e-21
-3.63895e-22
7.9679e-21
2.0204e-20
1.69436e-20
-3.62681e-20
-1.49092e-19
-2.24934e-19
-1.16037e-20
7.50148e-19
1.8499e-18
2.00457e-18
-1.08744e-18
-8.94405e-18
-1.85151e-17
-1.86563e-17
7.98063e-18
7.23217e-17
1.56218e-16
1.92484e-16
7.1247e-17
-3.06102e-16
-9.28344e-16
-1.57424e-15
-1.78493e-15
-9.74189e-16
1.32127e-15
5.14294e-15
9.92176e-15
1.4542e-14
1.76883e-14
1.83496e-14
1.62479e-14
1.19748e-14
6.75915e-15
1.9794e-15
-1.34451e-15
-2.84927e-15
-2.81453e-15
-1.89949e-15
-7.97412e-16
2.25463e-17
4.00665e-16
4.17882e-16
2.56784e-16
7.96842e-17
-2.95149e-17
-6.15367e-17
-4.63498e-17
-1.80302e-17
3.45192e-18
1.34844e-17
1.57215e-17
1.50278e-17
1.41901e-17
1.38978e-17
1.392e-17
1.39811e-17
1.39987e-17
1.39938e-17
1.39898e-17
1.39897e-17
1.39903e-17
1.39903e-17
1.39903e-17
1.39903e-17
1.39903e-17
1.1383e-33
-6.54689e-33
-2.00595e-32
3.51494e-33
1.4568e-31
2.86099e-31
-3.63522e-31
-2.66389e-30
-3.37131e-30
9.73986e-30
4.23129e-29
3.17456e-29
-1.88537e-28
-6.03798e-28
-2.1654e-28
3.02733e-27
7.95612e-27
7.23831e-28
-4.23411e-26
-9.91056e-26
2.45744e-27
5.26022e-25
1.18525e-24
4.27962e-26
-5.80994e-24
-1.36201e-23
-3.62869e-24
5.59126e-23
1.47691e-22
9.24392e-23
-4.42451e-22
-1.4561e-21
-1.56485e-21
2.41064e-21
1.22985e-20
1.99314e-20
-6.79031e-22
-7.97213e-20
-1.92989e-19
-1.75648e-19
2.76934e-19
1.32406e-18
2.32954e-18
1.25917e-18
-4.73237e-18
-1.61786e-17
-2.58004e-17
-1.45191e-17
4.29372e-17
1.54847e-16
2.73517e-16
2.62363e-16
-8.86218e-17
-9.55404e-16
-2.27339e-15
-3.49789e-15
-3.47371e-15
-5.77307e-16
6.7865e-15
1.94299e-14
3.66628e-14
5.59954e-14
7.35405e-14
8.51014e-14
8.7578e-14
8.01112e-14
6.44508e-14
4.43635e-14
2.43322e-14
8.10717e-15
-2.30365e-15
-6.87156e-15
-7.0545e-15
-4.91818e-15
-2.30126e-15
-3.29771e-16
6.44896e-16
8.08528e-16
5.533e-16
2.22029e-16
-3.02134e-18
-8.86066e-17
-8.1504e-17
-4.17896e-17
-7.4892e-18
9.96945e-18
1.46501e-17
1.40213e-17
1.27848e-17
1.22987e-17
1.23089e-17
1.2396e-17
1.24226e-17
1.24161e-17
1.24106e-17
1.24105e-17
1.24113e-17
1.24113e-17
1.24113e-17
1.24113e-17
-1.98597e-33
-2.84228e-32
-2.98372e-32
1.36395e-31
4.92031e-31
1.06955e-31
-3.07047e-30
-7.20538e-30
4.63243e-30
5.59199e-29
9.04482e-29
-1.51939e-28
-8.77795e-28
-9.87295e-28
3.02733e-27
1.23064e-26
9.65941e-27
-4.76608e-26
-1.58035e-25
-9.18305e-26
6.34836e-25
1.89269e-24
9.83865e-25
-7.3006e-24
-2.13118e-23
-1.29097e-23
7.18648e-23
2.24186e-22
1.85544e-22
-5.77255e-22
-2.14941e-21
-2.50562e-21
3.22304e-21
1.79003e-20
2.9061e-20
-2.26293e-21
-1.18058e-19
-2.72753e-19
-2.14639e-19
4.74003e-19
1.90609e-18
2.97897e-18
7.9988e-19
-7.89579e-18
-2.19826e-17
-2.93802e-17
-5.30434e-18
7.47465e-17
2.02345e-16
2.95857e-16
1.8705e-16
-3.21302e-16
-1.30642e-15
-2.52463e-15
-3.26506e-15
-2.38678e-15
1.39356e-15
9.02884e-15
2.06766e-14
3.54682e-14
5.16363e-14
6.69406e-14
7.91926e-14
8.66693e-14
8.8326e-14
8.3865e-14
7.37642e-14
5.92967e-14
4.24576e-14
2.56775e-14
1.13042e-14
1.0035e-15
-4.66323e-15
-6.27971e-15
-5.21329e-15
-3.03331e-15
-9.80309e-16
3.07187e-16
7.62328e-16
6.59473e-16
3.47319e-16
7.13221e-17
-7.58636e-17
-1.11893e-16
-9.40412e-17
-6.84722e-17
-5.41891e-17
-5.07615e-17
-5.18036e-17
-5.30006e-17
-5.33288e-17
-5.3238e-17
-5.31518e-17
-5.31431e-17
-5.31546e-17
-5.31579e-17
-5.31568e-17
-5.31563e-17
-5.31564e-17
-5.31564e-17
-1.11023e-32
-2.48857e-32
5.11492e-32
2.8278e-31
2.41428e-31
-1.43511e-30
-4.69569e-30
-4.43968e-31
2.99456e-29
6.72518e-29
-4.59328e-29
-5.21426e-28
-8.4783e-28
1.32253e-27
7.95611e-27
9.65939e-27
-2.47566e-26
-1.09517e-25
-1.04106e-25
3.7017e-25
1.38693e-24
1.1399e-24
-4.66437e-24
-1.63398e-23
-1.35203e-23
4.98883e-23
1.79083e-22
1.72486e-22
-4.38785e-22
-1.79936e-21
-2.19312e-21
2.8209e-21
1.60248e-20
2.55594e-20
-6.33164e-21
-1.18562e-19
-2.55278e-19
-1.45021e-19
6.2605e-19
2.03736e-18
2.60916e-18
-9.74154e-19
-1.14426e-17
-2.44379e-17
-2.14261e-17
2.70236e-17
1.3406e-16
2.45764e-16
2.01446e-16
-2.239e-16
-1.12994e-15
-2.18069e-15
-2.36643e-15
-1.67923e-16
5.60629e-15
1.43992e-14
2.25508e-14
2.30643e-14
7.37129e-15
-3.09549e-14
-9.19087e-14
-1.66464e-13
-2.37688e-13
-2.85908e-13
-2.96103e-13
-2.64132e-13
-1.98727e-13
-1.18139e-13
-4.30432e-14
1.09243e-14
3.76728e-14
4.06743e-14
2.92953e-14
1.38012e-14
1.48277e-15
-4.7906e-15
-5.76156e-15
-3.86339e-15
-1.4372e-15
1.96155e-16
7.76694e-16
6.53879e-16
2.92264e-16
-9.65398e-18
-1.63477e-16
-2.05807e-16
-2.00951e-16
-1.89939e-16
-1.85261e-16
-1.8514e-16
-1.85913e-16
-1.86205e-16
-1.86167e-16
-1.86111e-16
-1.86105e-16
-1.86112e-16
-1.86114e-16
-1.86113e-16
-1.86113e-16
-1.86113e-16
-1.36648e-32
1.04314e-31
2.82356e-31
-1.35273e-31
-2.22934e-30
-3.81005e-30
6.78377e-30
3.95524e-29
4.08341e-29
-1.64408e-28
-6.1141e-28
-3.0937e-28
3.04518e-27
8.50415e-27
7.2382e-28
-4.76608e-26
-1.09517e-25
2.38257e-26
6.56433e-25
1.341e-24
-4.78748e-25
-8.09858e-24
-1.59136e-23
4.65161e-24
8.96479e-23
1.83503e-22
-5.36533e-24
-8.75538e-22
-2.01722e-21
-7.57456e-22
7.19418e-21
2.03291e-20
1.74919e-20
-4.37103e-20
-1.77097e-19
-2.5033e-19
9.5996e-20
1.20801e-18
2.59114e-18
1.85745e-18
-4.90346e-18
-1.88516e-17
-2.98167e-17
-9.86081e-18
7.57101e-17
2.2431e-16
3.26199e-16
1.24997e-16
-6.87158e-16
-2.15031e-15
-3.54297e-15
-3.01971e-15
2.07993e-15
1.37448e-14
3.06266e-14
4.51164e-14
4.19693e-14
4.39127e-16
-9.92288e-14
-2.66324e-13
-4.9093e-13
-7.40624e-13
-9.65863e-13
-1.1137e-12
-1.14525e-12
-1.04977e-12
-8.49198e-13
-5.90879e-13
-3.31486e-13
-1.19009e-13
2.00573e-14
8.40868e-14
9.05923e-14
6.5449e-14
3.23457e-14
6.35644e-15
-7.23658e-15
-1.02344e-14
-7.42415e-15
-3.24812e-15
-2.25423e-16
1.0444e-15
1.06846e-15
6.03557e-16
1.64464e-16
-7.17564e-17
-1.40832e-16
-1.3568e-16
-1.19536e-16
-1.12581e-16
-1.12453e-16
-1.13605e-16
-1.14002e-16
-1.13927e-16
-1.1385e-16
-1.13847e-16
-1.13857e-16
-1.13858e-16
-1.13857e-16
-1.13857e-16
3.17056e-32
3.66494e-31
3.34685e-31
-1.86418e-30
-6.22254e-30
-3.98574e-31
4.08755e-29
8.91745e-29
-7.61732e-29
-7.32669e-28
-1.08748e-27
2.2034e-27
1.13699e-26
1.13688e-26
-4.23411e-26
-1.58035e-25
-1.04106e-25
6.56433e-25
2.01767e-24
9.09986e-25
-8.6951e-24
-2.41076e-23
-9.36649e-24
1.0018e-22
2.71976e-22
1.3021e-22
-9.96504e-22
-2.88013e-21
-2.0422e-21
8.21135e-21
2.79396e-20
2.94516e-20
-4.92668e-20
-2.36957e-19
-3.57299e-19
9.58022e-20
1.61236e-18
3.47302e-18
2.3163e-18
-7.04132e-18
-2.51815e-17
-3.65445e-17
-3.60986e-18
1.11887e-16
2.85785e-16
3.5148e-16
-7.18645e-18
-1.06667e-15
-2.63526e-15
-3.57313e-15
-1.72613e-15
5.19047e-15
1.7605e-14
3.16657e-14
3.78512e-14
2.21796e-14
-2.94872e-14
-1.25405e-13
-2.63049e-13
-4.28161e-13
-5.98578e-13
-7.50926e-13
-8.66634e-13
-9.34436e-13
-9.49211e-13
-9.09557e-13
-8.17061e-13
-6.78219e-13
-5.07177e-13
-3.26046e-13
-1.60825e-13
-3.39964e-14
4.26129e-14
7.09284e-14
6.41608e-14
4.0338e-14
1.52905e-14
-1.75116e-15
-8.7149e-15
-8.312e-15
-4.7412e-15
-1.24207e-15
7.84058e-16
1.39603e-15
1.25804e-15
9.63567e-16
7.83585e-16
7.35047e-16
7.45447e-16
7.60244e-16
7.64739e-16
7.63771e-16
7.62679e-16
7.62541e-16
7.6268e-16
7.62725e-16
7.62712e-16
7.62706e-16
7.62707e-16
7.62707e-16
1.47956e-31
2.47217e-31
-8.16623e-31
-3.45808e-30
-1.64644e-30
2.02833e-29
5.45075e-29
-1.85515e-29
-3.98171e-28
-7.38608e-28
9.39037e-28
6.66948e-27
8.72356e-27
-2.14478e-26
-9.91056e-26
-9.18303e-26
3.7017e-25
1.341e-24
9.09984e-25
-5.33556e-24
-1.68412e-23
-9.50072e-24
6.63298e-23
1.9852e-22
1.17029e-22
-7.1292e-22
-2.19575e-21
-1.64735e-21
6.44867e-21
2.24383e-20
2.31003e-20
-4.4976e-20
-2.04786e-19
-2.90148e-19
1.65645e-19
1.56983e-18
3.06547e-18
1.18513e-18
-8.85692e-18
-2.56711e-17
-2.94701e-17
2.04684e-17
1.52543e-16
3.01338e-16
2.27101e-16
-4.24978e-16
-1.76626e-15
-3.0356e-15
-2.16237e-15
3.58721e-15
1.51221e-14
2.76467e-14
2.79272e-14
-3.1369e-15
-7.94003e-14
-1.91282e-13
-2.89002e-13
-2.80652e-13
-5.58871e-14
4.65909e-13
1.2809e-12
2.26859e-12
3.20724e-12
3.8411e-12
3.97543e-12
3.55653e-12
2.69726e-12
1.63417e-12
6.36468e-13
-9.02496e-14
-4.62843e-13
-5.22231e-13
-3.87328e-13
-1.91109e-13
-3.01133e-14
5.54188e-14
7.23609e-14
5.06462e-14
2.02898e-14
-1.06643e-15
-9.28445e-15
-8.32164e-15
-3.97152e-15
-1.37128e-16
1.90307e-15
2.51461e-15
2.48633e-15
2.35171e-15
2.28843e-15
2.28393e-15
2.29317e-15
2.29719e-15
2.2969e-15
2.29619e-15
2.29609e-15
2.29617e-15
2.29619e-15
2.29619e-15
2.29618e-15
2.29618e-15
1.64561e-31
-1.3949e-30
-3.62243e-30
2.13787e-30
2.94312e-29
4.78084e-29
-9.49279e-29
-5.16673e-28
-4.90883e-28
2.23876e-27
7.9048e-27
3.27885e-27
-4.09096e-26
-1.08798e-25
2.45762e-27
6.34837e-25
1.38693e-24
-4.78749e-25
-8.6951e-24
-1.68412e-23
8.42425e-24
1.06969e-22
1.98933e-22
-8.70978e-23
-1.18457e-21
-2.29455e-21
3.71003e-22
1.16265e-20
2.53468e-20
6.68662e-21
-9.67934e-20
-2.57625e-19
-1.97464e-19
6.09434e-19
2.272e-18
3.01145e-18
-1.70016e-18
-1.58108e-17
-3.2171e-17
-2.0102e-17
6.78275e-17
2.40121e-16
3.60914e-16
8.02931e-17
-1.01014e-15
-2.81919e-15
-3.91585e-15
-1.1277e-15
9.1594e-15
2.70048e-14
4.29972e-14
3.42758e-14
-3.10214e-14
-1.75129e-13
-3.78441e-13
-5.45293e-13
-4.89404e-13
3.83308e-14
1.27086e-12
3.31232e-12
6.03624e-12
9.04926e-12
1.17576e-11
1.35307e-11
1.39069e-11
1.27596e-11
1.03496e-11
7.23974e-12
4.10596e-12
1.52422e-12
-1.82397e-13
-9.86388e-13
-1.0907e-12
-8.02427e-13
-4.07053e-13
-8.98756e-14
8.0627e-14
1.22402e-13
9.1494e-14
4.16595e-14
4.38306e-15
-1.20085e-14
-1.30284e-14
-7.70575e-15
-2.41631e-15
5.10962e-16
1.40187e-15
1.35839e-15
1.16185e-15
1.07334e-15
1.07016e-15
1.08427e-15
1.08941e-15
1.08857e-15
1.08759e-15
1.08754e-15
1.08766e-15
1.08768e-15
1.08767e-15
1.08767e-15
-4.17406e-31
-4.39659e-30
-3.71455e-30
2.29914e-29
7.39243e-29
-9.80089e-31
-4.97829e-28
-1.04813e-27
1.00819e-27
8.85553e-27
1.2601e-26
-2.78015e-26
-1.36691e-25
-1.28907e-25
5.26022e-25
1.89269e-24
1.1399e-24
-8.09858e-24
-2.41077e-23
-9.50074e-24
1.06969e-22
2.87857e-22
9.58047e-23
-1.2326e-21
-3.2516e-21
-1.38838e-21
1.23001e-20
3.45417e-20
2.29037e-20
-1.02167e-19
-3.36719e-19
-3.41204e-19
6.25983e-19
2.87511e-18
4.22178e-18
-1.43146e-18
-1.97657e-17
-4.16049e-17
-2.60701e-17
8.84029e-17
3.05498e-16
4.32989e-16
1.8459e-17
-1.38507e-15
-3.45279e-15
-4.14052e-15
3.49706e-16
1.32197e-14
3.18893e-14
4.23355e-14
1.86166e-14
-6.60539e-14
-2.15155e-13
-3.8009e-13
-4.44818e-13
-2.42414e-13
3.91371e-13
1.5454e-12
3.17692e-12
5.10535e-12
7.06418e-12
8.78506e-12
1.00686e-11
1.08077e-11
1.09631e-11
1.05257e-11
9.50439e-12
7.9526e-12
6.01077e-12
3.92051e-12
1.98283e-12
4.70244e-13
-4.63133e-13
-8.25617e-13
-7.64206e-13
-4.89755e-13
-1.92294e-13
1.42568e-14
1.01451e-13
9.94667e-14
5.79198e-14
1.60033e-14
-8.78949e-15
-1.66357e-14
-1.52841e-14
-1.18634e-14
-9.71542e-15
-9.11807e-15
-9.23294e-15
-9.40856e-15
-9.46342e-15
-9.45246e-15
-9.43942e-15
-9.43766e-15
-9.43931e-15
-9.43986e-15
-9.4397e-15
-9.43963e-15
-9.43964e-15
-9.43964e-15
-1.82857e-30
-2.70312e-30
1.06362e-29
4.13741e-29
1.38753e-29
-2.54483e-28
-6.38174e-28
3.26115e-28
4.88819e-27
8.44476e-27
-1.27973e-26
-8.06504e-26
-9.69132e-26
2.76942e-25
1.18525e-24
9.83864e-25
-4.66437e-24
-1.59136e-23
-9.36647e-24
6.63298e-23
1.98933e-22
9.58045e-23
-8.18455e-22
-2.34112e-21
-1.21085e-21
8.77032e-21
2.59159e-20
1.78848e-20
-7.94572e-20
-2.65496e-19
-2.60395e-19
5.5977e-19
2.43133e-18
3.34525e-18
-2.17721e-18
-1.87148e-17
-3.57954e-17
-1.2538e-17
1.06286e-16
3.0192e-16
3.40093e-16
-2.54034e-16
-1.80207e-15
-3.52263e-15
-2.60791e-15
5.05857e-15
2.07121e-14
3.54169e-14
2.50673e-14
-4.2019e-14
-1.76244e-13
-3.21918e-13
-3.25853e-13
3.28158e-14
9.14586e-13
2.21045e-12
3.3496e-12
3.2776e-12
7.28601e-13
-5.22248e-12
-1.4533e-11
-2.58245e-11
-3.65593e-11
-4.38104e-11
-4.53493e-11
-4.05611e-11
-3.07369e-11
-1.85832e-11
-7.18033e-12
1.11879e-12
5.36301e-12
6.02163e-12
4.45751e-12
2.195e-12
3.40988e-13
-6.43287e-13
-8.37432e-13
-5.86094e-13
-2.35065e-13
1.2126e-14
1.07507e-13
9.65911e-14
4.62809e-14
1.78918e-15
-2.19716e-14
-2.91509e-14
-2.88639e-14
-2.73096e-14
-2.65708e-14
-2.65148e-14
-2.66212e-14
-2.66682e-14
-2.66651e-14
-2.66569e-14
-2.66557e-14
-2.66566e-14
-2.66569e-14
-2.66568e-14
-2.66568e-14
-2.66568e-14
-2.05528e-30
1.60066e-29
4.29024e-29
-2.17734e-29
-3.40939e-28
-5.73632e-28
1.05761e-27
6.02256e-27
6.03143e-27
-2.54251e-26
-9.2577e-26
-4.32113e-26
4.68481e-25
1.2788e-24
4.27946e-26
-7.3006e-24
-1.63398e-23
4.65162e-24
1.0018e-22
1.9852e-22
-8.70979e-23
-1.2326e-21
-2.34112e-21
8.93696e-22
1.36307e-20
2.69034e-20
-3.13106e-21
-1.33394e-19
-2.9569e-19
-8.7893e-20
1.10505e-18
2.98843e-18
2.3631e-18
-6.8908e-18
-2.6198e-17
-3.52342e-17
1.83566e-17
1.81057e-16
3.72221e-16
2.39333e-16
-7.67133e-16
-2.75543e-15
-4.17653e-15
-1.00978e-15
1.14704e-14
3.22981e-14
4.5153e-14
1.36837e-14
-1.03703e-13
-3.08156e-13
-4.92665e-13
-3.96387e-13
3.44841e-13
1.98622e-12
4.3069e-12
6.22039e-12
5.6093e-12
-3.57696e-13
-1.43269e-11
-3.74796e-11
-6.83762e-11
-1.02548e-10
-1.33254e-10
-1.5334e-10
-1.57577e-10
-1.44535e-10
-1.17183e-10
-8.19103e-11
-4.63849e-11