/*--------------------------------*- C++ -*----------------------------------*\
  =========                 |
  \\      /  F ield         | OpenFOAM: The Open Source CFD Toolbox
   \\    /   O peration     | Website:  https://openfoam.org
    \\  /    A nd           | Version:  13
     \\/     M anipulation  |
\*---------------------------------------------------------------------------*/
FoamFile
{
    format      ascii;
    class       volScalarField;
    location    "7.3";
    object      T;
}
// * * * * * * * * * * * * * * * * * * * * * * * * * * * * * * * * * * * * * //

dimensions      [0 0 0 1 0 0 0];

internalField   nonuniform List<scalar> 
10000
(
-8.44789e-45
1.11647e-43
2.48082e-43
-4.40361e-43
-2.90878e-42
-2.24385e-42
1.86371e-41
5.51098e-41
-3.20479e-41
-4.83161e-40
-7.49046e-40
2.00763e-39
9.55988e-39
5.59772e-39
-5.51149e-38
-1.54224e-37
4.67576e-38
1.12393e-36
2.09466e-36
-2.71688e-36
-1.90825e-35
-2.46053e-35
6.24769e-35
2.84499e-34
2.6157e-34
-1.06057e-33
-3.85377e-33
-2.76639e-33
1.47895e-32
4.84843e-32
3.31891e-32
-1.73797e-31
-5.70561e-31
-4.66379e-31
1.68496e-30
6.1984e-30
6.81435e-30
-1.21689e-29
-5.98131e-29
-9.07909e-29
3.7436e-29
4.746e-28
1.01083e-27
5.77645e-28
-2.56405e-27
-8.64101e-27
-1.20081e-26
1.62225e-27
4.75241e-26
1.15676e-25
1.3326e-25
-4.51578e-26
-5.547e-25
-1.30271e-24
-1.6855e-24
-4.8323e-25
3.70496e-24
1.12439e-23
1.96844e-23
2.2308e-23
8.3164e-24
-3.43119e-23
-1.135e-22
-2.27183e-22
-3.59926e-22
-4.84715e-22
-5.70487e-22
-5.92919e-22
-5.43882e-22
-4.35084e-22
-2.94e-22
-1.53879e-22
-4.23768e-23
2.63178e-23
5.30957e-23
4.97476e-23
3.19288e-23
1.28059e-23
-2.79041e-25
-5.78194e-24
-5.7864e-24
-3.40718e-24
-1.01274e-24
3.60089e-25
7.18849e-25
5.20452e-25
2.00074e-25
-2.14455e-26
-1.12907e-25
-1.27425e-25
-1.18896e-25
-1.12387e-25
-1.11136e-25
-1.11727e-25
-1.12083e-25
-1.12081e-25
-1.12034e-25
-1.12029e-25
-1.12033e-25
-1.12033e-25
1.11546e-43
8.16387e-43
8.22062e-44
-6.63755e-42
-1.34439e-41
2.77176e-41
1.60762e-40
9.62226e-41
-1.04957e-39
-2.79143e-39
2.30286e-39
2.49956e-38
3.32338e-38
-1.10155e-37
-4.52327e-37
-1.62624e-37
2.70028e-36
6.58073e-36
-3.94256e-36
-4.98481e-35
-7.87732e-35
1.40194e-34
7.65325e-34
7.88038e-34
-2.73935e-33
-1.02804e-32
-6.84398e-33
4.10235e-32
1.25162e-31
5.89289e-32
-5.08995e-31
-1.41486e-30
-6.46582e-31
5.32487e-30
1.49552e-29
9.334e-30
-4.57727e-29
-1.45202e-28
-1.37239e-28
2.90204e-28
1.23346e-27
1.72138e-27
-7.59615e-28
-8.32778e-27
-1.69497e-26
-1.038e-26
3.47242e-26
1.19306e-25
1.73413e-25
3.5493e-26
-4.59824e-25
-1.23955e-24
-1.6961e-24
-6.38793e-25
3.13571e-24
9.55748e-24
1.58138e-23
1.584e-23
1.89068e-24
-3.17353e-23
-8.44341e-23
-1.47287e-22
-2.055e-22
-2.44977e-22
-2.59665e-22
-2.55017e-22
-2.44763e-22
-2.4236e-22
-2.52255e-22
-2.66597e-22
-2.69723e-22
-2.47696e-22
-1.96968e-22
-1.26959e-22
-5.53796e-23
4.51691e-25
3.10729e-23
3.73943e-23
2.79212e-23
1.32726e-23
1.37808e-24
-4.55774e-24
-5.28819e-24
-3.35013e-24
-1.07083e-24
3.74328e-25
8.81352e-25
8.54024e-25
6.95433e-25
5.96865e-25
5.73834e-25
5.81521e-25
5.88855e-25
5.90111e-25
5.89304e-25
5.88936e-25
5.88983e-25
5.89033e-25
5.89031e-25
5.89028e-25
2.47885e-43
8.17217e-44
-2.3543e-42
-5.32366e-42
9.31274e-42
6.28423e-41
4.94559e-41
-4.07138e-40
-1.21259e-39
7.24108e-40
1.07772e-38
1.64995e-38
-4.62449e-38
-2.15446e-37
-1.12667e-37
1.28597e-36
3.45665e-36
-1.53178e-36
-2.63355e-35
-4.54776e-35
7.35204e-35
4.44511e-34
4.93802e-34
-1.65038e-33
-6.5211e-33
-4.46605e-33
2.78165e-32
8.62464e-32
3.61227e-32
-3.88197e-31
-1.05749e-30
-3.45545e-31
4.62441e-30
1.22086e-29
5.15276e-30
-4.67917e-29
-1.32061e-28
-9.08975e-29
3.82542e-28
1.29742e-27
1.41199e-27
-2.11727e-27
-1.08702e-26
-1.75626e-26
3.92356e-28
6.85043e-26
1.65827e-25
1.55969e-25
-2.08652e-25
-1.06343e-24
-1.94487e-24
-1.34915e-24
2.8952e-24
1.16072e-23
2.07156e-23
1.84082e-23
-1.27983e-23
-8.51132e-23
-1.86174e-22
-2.59772e-22
-2.01579e-22
1.16341e-22
7.91045e-22
1.82291e-21
3.07273e-21
4.27398e-21
5.1096e-21
5.32748e-21
4.84354e-21
3.78122e-21
2.42607e-21
1.11636e-21
1.21909e-22
-4.35016e-22
-5.88387e-22
-4.75962e-22
-2.61216e-22
-6.89152e-23
4.28431e-23
7.45212e-23
5.74663e-23
2.61246e-23
2.11346e-24
-8.26965e-24
-8.43723e-24
-4.45783e-24
-6.54772e-25
1.43258e-24
2.08319e-24
2.08123e-24
1.96632e-24
1.91485e-24
1.91335e-24
1.92083e-24
1.92309e-24
1.92254e-24
1.92216e-24
1.92218e-24
1.92222e-24
1.92222e-24
-4.40182e-43
-6.63851e-42
-5.32668e-42
4.47854e-41
1.30314e-40
-1.07012e-40
-1.24128e-39
-1.6027e-39
6.35297e-39
2.46656e-38
2.01567e-39
-1.75671e-37
-3.67515e-37
4.93964e-37
3.54421e-36
3.87671e-36
-1.56973e-35
-5.77765e-35
-1.87916e-35
3.25786e-34
7.99511e-34
-2.9669e-34
-5.40246e-33
-9.78451e-33
1.00454e-32
7.68053e-32
1.11268e-31
-1.72883e-31
-9.7065e-31
-1.24749e-30
2.17122e-30
1.10934e-29
1.43884e-29
-2.0498e-29
-1.14318e-28
-1.68686e-28
1.23578e-28
1.03027e-27
1.8846e-27
1.09748e-28
-7.50771e-27
-1.84177e-26
-1.47952e-26
3.5103e-26
1.4158e-25
2.19118e-25
3.31424e-26
-6.88549e-25
-1.84456e-24
-2.35511e-24
5.09922e-26
7.67882e-24
1.96849e-23
2.77656e-23
1.40538e-23
-4.37114e-23
-1.55973e-22
-2.95974e-22
-3.75521e-22
-2.38706e-22
3.10914e-22
1.44625e-21
3.23167e-21
5.55061e-21
8.0838e-21
1.0362e-20
1.18872e-20
1.22853e-20
1.14315e-20
9.4995e-21
6.91067e-21
4.20205e-21
1.86436e-21
2.11119e-22
-6.7684e-22
-9.21922e-22
-7.61086e-22
-4.42461e-22
-1.48462e-22
3.39118e-23
9.94804e-23
8.81543e-23
4.78701e-23
1.17834e-23
-7.41699e-24
-1.17057e-23
-8.56434e-24
-4.30832e-24
-1.73839e-24
-9.25552e-25
-9.56609e-25
-1.1197e-24
-1.18336e-24
-1.17932e-24
-1.16826e-24
-1.16628e-24
-1.16741e-24
-1.16778e-24
-1.1677e-24
-1.16767e-24
-2.90703e-42
-1.34437e-41
9.30321e-42
1.30292e-40
1.73407e-40
-7.26455e-40
-2.79701e-39
2.85384e-40
2.2247e-38
4.14736e-38
-8.51031e-38
-4.74198e-37
-3.26015e-37
2.72614e-36
7.75094e-36
-3.11881e-36
-5.86584e-35
-9.86909e-35
1.8013e-34
1.00106e-33
9.37586e-34
-4.21672e-33
-1.44625e-32
-5.352e-33
7.27542e-32
1.84721e-31
-1.27019e-32
-1.03851e-30
-2.16924e-30
7.59449e-31
1.28227e-29
2.42563e-29
-9.8777e-30
-1.39098e-28
-2.63087e-28
5.44517e-29
1.31359e-27
2.73403e-27
5.40707e-28
-1.03294e-26
-2.60205e-26
-1.85211e-26
5.95266e-26
2.10606e-25
2.71648e-25
-1.29924e-25
-1.27973e-24
-2.60202e-24
-1.89604e-24
4.03169e-24
1.58467e-23
2.58701e-23
1.4906e-23
-3.98242e-23
-1.40205e-22
-2.34157e-22
-2.00811e-22
1.10583e-22
7.72154e-22
1.6342e-21
2.2379e-21
1.88824e-21
-7.20445e-23
-3.87315e-21
-9.01455e-21
-1.42617e-20
-1.8028e-20
-1.90103e-20
-1.67733e-20
-1.19734e-20
-6.0917e-21
-8.09285e-22
2.65439e-21
3.92379e-21
3.42992e-21
2.04489e-21
6.25302e-22
-3.05855e-22
-6.35169e-22
-5.35691e-22
-2.70347e-22
-3.93638e-23
7.61036e-23
8.97303e-23
5.37324e-23
1.32505e-23
-1.13608e-23
-1.99499e-23
-2.02119e-23
-1.86173e-23
-1.77497e-23
-1.76507e-23
-1.77623e-23
-1.78149e-23
-1.78116e-23
-1.78033e-23
-1.78024e-23
-1.78033e-23
-1.78035e-23
-1.78034e-23
-2.24055e-42
2.77223e-41
6.28333e-41
-1.07067e-40
-7.26569e-40
-5.80321e-40
4.61117e-39
1.37896e-38
-7.66735e-39
-1.19938e-37
-1.87201e-37
4.95683e-37
2.36985e-36
1.38917e-36
-1.36353e-35
-3.80476e-35
1.18916e-35
2.77289e-34
5.12336e-34
-6.79094e-34
-4.68365e-33
-5.93741e-33
1.55135e-32
6.9367e-32
6.18882e-32
-2.61841e-31
-9.32866e-31
-6.39626e-31
3.63296e-30
1.16561e-29
7.56688e-30
-4.25376e-29
-1.36396e-28
-1.06595e-28
4.1214e-28
1.47592e-27
1.57146e-27
-2.99938e-27
-1.42128e-26
-2.10875e-26
9.91832e-27
1.12821e-25
2.35806e-25
1.27157e-25
-6.13886e-25
-2.02194e-24
-2.75963e-24
4.87564e-25
1.11778e-23
2.68123e-23
3.03926e-23
-1.153e-23
-1.29388e-22
-3.00553e-22
-3.85066e-22
-1.03244e-22
8.62716e-22
2.58966e-21
4.50938e-21
5.08197e-21
1.84586e-21
-7.92672e-21
-2.60192e-20
-5.19387e-20
-8.21573e-20
-1.1053e-19
-1.30007e-19
-1.35075e-19
-1.23902e-19
-9.91507e-20
-6.70571e-20
-3.51686e-20
-9.76764e-21
5.91263e-21
1.20595e-20
1.1339e-20
7.30359e-21
2.95039e-21
-4.11596e-23
-1.30919e-21
-1.32074e-21
-7.82772e-22
-2.36323e-22
7.93604e-23
1.63601e-22
1.19586e-22
4.67054e-23
-4.08848e-24
-2.52245e-23
-2.86611e-23
-2.67313e-23
-2.52302e-23
-2.49351e-23
-2.50694e-23
-2.5152e-23
-2.51518e-23
-2.5141e-23
-2.51397e-23
-2.51407e-23
-2.51408e-23
1.86341e-41
1.60769e-40
4.94924e-41
-1.24127e-39
-2.79726e-39
4.61044e-39
3.11778e-38
2.48021e-38
-1.91036e-37
-5.63504e-37
3.05507e-37
4.72366e-36
7.23344e-36
-1.88262e-35
-8.80803e-35
-5.01384e-35
4.87087e-34
1.32548e-33
-4.15842e-34
-9.24814e-33
-1.66283e-32
2.16329e-32
1.44831e-31
1.78923e-31
-4.52897e-31
-1.97542e-30
-1.73853e-30
6.94289e-30
2.43007e-29
1.69947e-29
-8.6354e-29
-2.75545e-28
-1.91244e-28
8.88139e-28
2.89187e-27
2.48569e-27
-7.26918e-27
-2.75206e-26
-3.23681e-26
3.98788e-26
2.25115e-25
3.69464e-25
-3.52233e-27
-1.41165e-24
-3.36069e-24
-2.97735e-24
4.64228e-24
2.15177e-23
3.71225e-23
2.12867e-23
-6.49381e-23
-2.27224e-22
-3.74313e-22
-2.81421e-22
3.43974e-22
1.64541e-21
3.29872e-21
4.26547e-21
2.84781e-21
-2.82887e-21
-1.40269e-20
-3.06708e-20
-5.11069e-20
-7.2535e-20
-9.19008e-20
-1.06754e-19
-1.15631e-19
-1.17892e-19
-1.13346e-19
-1.02104e-19
-8.48576e-20
-6.33071e-20
-4.02838e-20
-1.92267e-20
-3.15715e-21
6.33468e-21
9.53421e-21
8.25463e-21
4.92726e-21
1.63224e-21
-4.82785e-22
-1.23909e-21
-1.06791e-21
-5.50563e-22
-1.00005e-22
1.32105e-22
1.81976e-22
1.49218e-22
1.09479e-22
9.01113e-23
8.70892e-23
8.92784e-23
9.07415e-23
9.08904e-23
9.07018e-23
9.06365e-23
9.06509e-23
9.06604e-23
9.06597e-23
9.0659e-23
5.50799e-41
9.62083e-41
-4.06978e-40
-1.60226e-39
2.85501e-40
1.37874e-38
2.47967e-38
-6.12767e-38
-3.16512e-37
-1.55736e-37
2.09753e-36
5.37408e-36
-4.60447e-36
-4.81871e-35
-6.5211e-35
2.03469e-34
8.64858e-34
4.10282e-34
-4.87709e-33
-1.28124e-32
4.35087e-33
8.9417e-32
1.62009e-31
-1.95773e-31
-1.3765e-30
-1.81424e-30
3.92778e-30
1.86384e-29
1.9103e-29
-5.81429e-29
-2.28461e-28
-2.06454e-28
6.92898e-28
2.57183e-27
2.43942e-27
-6.65778e-27
-2.64775e-26
-3.04511e-26
4.73881e-26
2.42086e-25
3.63023e-25
-1.54375e-25
-1.83799e-24
-3.74635e-24
-1.80918e-24
9.84885e-24
3.04475e-23
3.82936e-23
-1.38814e-23
-1.65649e-22
-3.61804e-22
-3.55372e-22
2.66381e-22
1.7678e-21
3.64198e-21
4.01629e-21
-1.87051e-22
-1.15863e-20
-2.91292e-20
-4.46461e-20
-4.17e-20
7.9122e-22
9.97304e-20
2.56784e-19
4.50828e-19
6.39491e-19
7.71543e-19
8.05967e-19
7.29087e-19
5.61123e-19
3.48575e-19
1.46013e-19
-3.89452e-21
-8.30597e-20
-9.88148e-20
-7.4717e-20
-3.74681e-20
-6.53028e-21
9.95063e-21
1.32562e-20
9.21274e-21
3.59935e-21
-2.68497e-22
-1.68636e-21
-1.45468e-21
-6.62735e-22
-4.34494e-24
3.22825e-22
4.08061e-22
3.96757e-22
3.76005e-22
3.68714e-22
3.69295e-22
3.70619e-22
3.70888e-22
3.70759e-22
3.70703e-22
3.70712e-22
3.70718e-22
3.70718e-22
-3.21078e-41
-1.04965e-39
-1.21239e-39
6.35402e-39
2.22488e-38
-7.66868e-39
-1.9105e-37
-3.16543e-37
8.36481e-37
4.04651e-36
1.88923e-36
-2.5668e-35
-6.53095e-35
4.81127e-35
5.49545e-34
7.99439e-34
-2.01954e-33
-9.42306e-33
-6.63266e-33
4.56526e-32
1.37337e-31
1.30424e-32
-7.92986e-31
-1.777e-30
7.28851e-31
1.16117e-29
2.13266e-29
-1.61664e-29
-1.49282e-28
-2.47928e-28
2.08221e-28
1.71266e-27
2.86455e-27
-1.70024e-27
-1.74235e-26
-3.24949e-26
3.09214e-27
1.51296e-25
3.44197e-25
1.76191e-25
-1.00984e-24
-3.15433e-24
-3.63886e-24
3.40179e-24
2.22694e-23
4.25367e-23
2.48954e-23
-8.93555e-23
-3.13197e-22
-4.93137e-22
-2.19852e-22
1.04077e-21
3.40629e-21
5.6729e-21
4.58628e-21
-4.67e-21
-2.57051e-20
-5.57273e-20
-7.96076e-20
-6.67696e-20
2.5013e-20
2.36863e-19
5.89484e-19
1.06461e-18
1.59696e-18
2.08386e-18
2.41279e-18
2.49782e-18
2.31052e-18
1.89188e-18
1.33919e-18
7.73415e-19
3.00587e-19
-1.72205e-20
-1.71404e-19
-1.96389e-19
-1.47179e-19
-7.61545e-20
-1.80491e-20
1.37377e-20
2.19404e-20
1.66239e-20
7.65408e-21
8.80754e-22
-2.11472e-21
-2.32593e-21
-1.40417e-21
-5.0475e-22
-3.10354e-23
9.51479e-23
7.72135e-23
4.59696e-23
3.58943e-23
3.73764e-23
3.93556e-23
3.9601e-23
3.93809e-23
3.93255e-23
3.93431e-23
3.93473e-23
-4.83124e-40
-2.79156e-39
7.23596e-40
2.46654e-38
4.14769e-38
-1.19928e-37
-5.63503e-37
-1.55805e-37
4.04633e-36
9.12984e-36
-1.22021e-35
-9.11916e-35
-9.34765e-35
4.5963e-34
1.57457e-33
3.30044e-35
-1.05161e-32
-2.16522e-32
2.37918e-32
1.867e-31
2.37792e-31
-6.48985e-31
-2.78563e-30
-2.02968e-30
1.18103e-29
3.6588e-29
1.25492e-29
-1.72197e-28
-4.38747e-28
-5.30626e-29
2.12895e-27
4.9403e-27
4.6748e-28
-2.26747e-26
-5.28304e-26
-1.447e-26
2.04694e-25
5.2847e-25
3.28075e-25
-1.46385e-24
-4.72537e-24
-5.11392e-24
6.5227e-24
3.48058e-23
5.7864e-23
1.1035e-23
-1.78114e-22
-4.64459e-22
-5.20841e-22
2.5426e-22
2.26518e-21
4.73438e-21
4.8163e-21
-1.86619e-21
-1.80347e-20
-3.93497e-20
-5.0073e-20
-2.50905e-20
5.80399e-20
1.99637e-19
3.61749e-19
4.69624e-19
4.38786e-19
2.20246e-19
-1.59385e-19
-5.9003e-19
-9.15402e-19
-1.00202e-18
-8.04771e-19
-3.92141e-19
8.44329e-20
4.60678e-19
6.30981e-19
5.84717e-19
3.93582e-19
1.64046e-19
-1.50805e-20
-1.03598e-19
-1.1026e-19
-7.13696e-20
-2.48477e-20
6.36939e-21
1.72864e-20
1.4333e-20
6.62731e-21
3.01833e-22
-2.76817e-21
-3.41396e-21
-3.10518e-21
-2.7695e-21
-2.65059e-21
-2.65851e-21
-2.68292e-21
-2.68984e-21
-2.68789e-21
-2.68644e-21
-2.68647e-21
-2.68664e-21
-2.68665e-21
-2.68664e-21
-7.48559e-40
2.30319e-39
1.07747e-38
2.00801e-39
-8.51064e-38
-1.87166e-37
3.05603e-37
2.09756e-36
1.88876e-36
-1.22033e-35
-3.92811e-35
9.52185e-36
3.06405e-34
5.69347e-34
-9.73366e-34
-5.99985e-33
-6.02024e-33
2.75143e-32
9.84016e-32
3.23671e-32
-5.57534e-31
-1.40937e-30
3.63826e-31
9.30977e-30
1.83015e-29
-1.37867e-29
-1.35227e-28
-2.24533e-28
2.40385e-28
1.75462e-27
2.70701e-27
-2.93754e-27
-2.05165e-26
-3.26433e-26
2.46536e-26
2.13876e-25
3.85628e-25
-7.41596e-26
-1.91156e-24
-4.22991e-24
-1.89576e-24
1.32807e-23
4.00235e-23
4.39529e-23
-5.02581e-23
-2.93544e-22
-5.38227e-22
-2.60227e-22
1.28446e-21
4.15164e-21
6.11674e-21
1.69761e-21
-1.55994e-20
-4.55474e-20
-6.95383e-20
-4.35242e-20
9.01354e-20
3.60468e-19
7.00506e-19
8.86164e-19
5.32453e-19
-8.09806e-19
-3.45877e-18
-7.37641e-18
-1.20306e-17
-1.64508e-17
-1.95037e-17
-2.02961e-17
-1.85314e-17
-1.46456e-17
-9.65134e-18
-4.75957e-18
-9.56104e-19
1.28301e-18
2.03613e-18
1.76582e-18
1.05071e-18
3.54432e-19
-8.53893e-20
-2.42028e-19
-2.10381e-19
-1.0963e-19
-2.21164e-20
2.18584e-20
2.86663e-20
1.77193e-20
4.86627e-21
-3.03313e-21
-5.91222e-21
-6.17866e-21
-5.81168e-21
-5.59715e-21
-5.57113e-21
-5.59571e-21
-5.60646e-21
-5.6054e-21
-5.60383e-21
-5.60377e-21
-5.60392e-21
-5.60393e-21
2.00869e-39
2.49975e-38
1.64963e-38
-1.75691e-37
-4.74229e-37
4.95713e-37
4.72391e-36
5.37455e-36
-2.56682e-35
-9.11946e-35
9.51537e-36
6.83756e-34
1.30059e-33
-2.19822e-33
-1.34418e-32
-1.23723e-32
6.44565e-32
2.13421e-31
2.56413e-32
-1.29502e-30
-2.86054e-30
1.87826e-30
2.10352e-29
3.36253e-29
-4.9036e-29
-2.94522e-28
-3.65081e-28
8.00504e-28
3.68384e-27
3.93777e-27
-1.00363e-26
-4.19497e-26
-4.4936e-26
9.91737e-26
4.34944e-25
5.38455e-25
-7.11143e-25
-4.00193e-24
-6.26178e-24
2.10465e-24
3.06043e-23
6.41707e-23
3.3508e-23
-1.64703e-22
-5.23602e-22
-6.74988e-22
2.08319e-22
2.85898e-21
6.39903e-21
6.55599e-21
-4.12496e-21
-3.10811e-20
-6.67196e-20
-7.86629e-20
-9.361e-21
1.98785e-19
5.47782e-19
9.13263e-19
9.95827e-19
3.3909e-19
-1.56013e-18
-5.06648e-18
-1.02079e-17
-1.65493e-17
-2.32059e-17
-2.90142e-17
-3.28184e-17
-3.37843e-17
-3.1642e-17
-2.67773e-17
-2.01378e-17
-1.29783e-17
-6.52372e-18
-1.65869e-18
1.25459e-18
2.37752e-18
2.23446e-18
1.47045e-18
6.2959e-19
2.99362e-20
-2.44554e-19
-2.67991e-19
-1.70499e-19
-6.01097e-20
9.72166e-21
3.36197e-20
2.9978e-20
1.87104e-20
1.06448e-20
7.66414e-21
7.54087e-21
8.03218e-21
8.26235e-21
8.26298e-21
8.22711e-21
8.2187e-21
8.22206e-21
8.22347e-21
8.22323e-21
8.22313e-21
9.55957e-39
3.32372e-38
-4.62362e-38
-3.67516e-37
-3.26073e-37
2.36971e-36
7.23347e-36
-4.60353e-36
-6.53073e-35
-9.34769e-35
3.06391e-34
1.30055e-33
3.68438e-34
-8.55673e-33
-1.98263e-32
1.89171e-32
1.72854e-31
2.27237e-31
-6.63344e-31
-2.82674e-30
-1.68248e-30
1.39672e-29
3.94561e-29
-4.06056e-32
-2.30325e-28
-4.89709e-28
2.44904e-28
3.21944e-27
5.63908e-27
-4.74455e-27
-3.95376e-26
-6.28361e-26
5.73183e-26
4.32535e-25
6.93826e-25
-4.53503e-25
-4.18244e-24
-7.48224e-24
1.11651e-24
3.44106e-23
7.48307e-23
3.39012e-23
-2.17973e-22
-6.43078e-22
-6.92304e-22
7.33447e-22
4.24276e-21
7.58588e-21
3.72887e-21
-1.62882e-20
-5.16611e-20
-7.4498e-20
-2.36332e-20
1.64313e-19
4.73395e-19
7.08189e-19
4.65809e-19
-7.08515e-19
-2.9443e-18
-5.57932e-18
-6.9124e-18
-4.51294e-18
3.80228e-18
1.86382e-17
3.8025e-17
5.74683e-17
7.13126e-17
7.49488e-17
6.6832e-17
4.92562e-17
2.74436e-17
7.39689e-18
-6.40605e-18
-1.23905e-17
-1.18346e-17
-7.66938e-18
-2.91565e-18
4.57439e-19
1.86868e-18
1.76833e-18
9.93535e-19
2.35533e-19
-1.86326e-19
-2.75118e-19
-1.83011e-19
-5.77335e-20
2.57596e-20
5.89765e-20
6.31521e-20
5.9063e-20
5.62239e-20
5.56928e-20
5.597e-20
5.61449e-20
5.6149e-20
5.61247e-20
5.61203e-20
5.61227e-20
5.61233e-20
5.61231e-20
5.59027e-39
-1.10159e-37
-2.15404e-37
4.94084e-37
2.72619e-36
1.38864e-36
-1.88277e-35
-4.81877e-35
4.81191e-35
4.59647e-34
5.69353e-34
-2.1983e-33
-8.55693e-33
-2.0153e-33
5.51487e-32
1.27809e-31
-1.03288e-31
-1.05668e-30
-1.55545e-30
3.41677e-30
1.69695e-29
1.54043e-29
-6.88594e-29
-2.40115e-28
-1.24309e-28
1.09322e-27
3.10631e-27
9.0841e-28
-1.46669e-26
-3.77698e-26
-9.60339e-27
1.69745e-25
4.36844e-25
1.79654e-25
-1.6722e-24
-4.74992e-24
-3.48749e-24
1.31345e-23
4.6682e-23
5.51628e-23
-6.45338e-23
-3.85494e-22
-6.80267e-22
-1.41072e-22
2.29737e-21
6.25952e-21
7.13206e-21
-4.81563e-21
-3.76166e-20
-7.92345e-20
-7.54522e-20
6.84115e-20
4.22323e-19
8.86052e-19
1.02215e-18
3.12389e-20
-2.91249e-18
-7.84999e-18
-1.29368e-17
-1.36327e-17
-2.98194e-18
2.64607e-17
7.92729e-17
1.53605e-16
2.39278e-16
3.19088e-16
3.73561e-16
3.87593e-16
3.56204e-16
2.86721e-16
1.96295e-16
1.05791e-16
3.27925e-17
-1.33362e-17
-3.26294e-17
-3.2114e-17
-2.15405e-17
-9.39187e-18
-6.52531e-19
3.35244e-18
3.71834e-18
2.35611e-18
8.21786e-19
-1.32351e-19
-4.37271e-19
-3.52682e-19
-1.58773e-19
-1.25905e-20
5.2546e-20
6.52653e-20
6.04089e-20
5.58821e-20
5.48219e-20
5.51702e-20
5.54307e-20
5.54409e-20
5.54084e-20
5.54034e-20
5.54062e-20
5.54066e-20
-5.51322e-38
-4.52362e-37
-1.1262e-37
3.54453e-36
7.75145e-36
-1.36358e-35
-8.80844e-35
-6.52182e-35
5.49549e-34
1.57462e-33
-9.73274e-34
-1.34419e-32
-1.98269e-32
5.51476e-32
2.48604e-31
1.27476e-31
-1.40424e-30
-3.70855e-30
1.43781e-30
2.64521e-29
4.59908e-29
-6.52756e-29
-4.12066e-28
-4.86586e-28
1.33793e-27
5.59865e-27
4.61633e-27
-2.03684e-26
-6.87039e-26
-4.40546e-26
2.53132e-25
7.78636e-25
4.94046e-25
-2.6157e-24
-8.18893e-24
-6.55635e-24
2.1708e-23
7.83477e-23
8.75884e-23
-1.24398e-22
-6.47269e-22
-1.02138e-21
1.10193e-22
4.14006e-21
9.46931e-21
7.76618e-21
-1.46053e-20
-6.21043e-20
-1.02803e-19
-5.03717e-20
2.00899e-19
6.53466e-19
1.03019e-18
6.89088e-19
-1.15924e-18
-4.81389e-18
-9.20137e-18
-1.12766e-17
-6.35076e-18
1.03688e-17
4.15045e-17
8.56697e-17
1.37274e-16
1.88343e-16
2.31448e-16
2.6206e-16
2.78963e-16
2.82759e-16
2.73835e-16
2.51543e-16
2.15308e-16
1.66824e-16
1.11495e-16
5.77414e-17
1.42521e-17
-1.33036e-17
-2.42308e-17
-2.2441e-17
-1.41827e-17
-5.2675e-18
8.06739e-19
3.21777e-18
2.96693e-18
1.61911e-18
3.60768e-19
-3.26452e-19
-5.02484e-19
-4.31038e-19
-3.26248e-19
-2.72112e-19
-2.6257e-19
-2.68198e-19
-2.72274e-19
-2.72761e-19
-2.72255e-19
-2.72068e-19
-2.72104e-19
-2.72131e-19
-2.72129e-19
-2.72127e-19
-1.54223e-37
-1.62701e-37
1.28582e-36
3.87679e-36
-3.11777e-36
-3.80457e-35
-5.01397e-35
2.03456e-34
7.99415e-34
3.30216e-35
-5.99967e-33
-1.2372e-32
1.89169e-32
1.27807e-31
1.27471e-31
-6.28565e-31
-2.17083e-30
-2.75183e-31
1.37687e-29
3.06132e-29
-2.33101e-29
-2.40706e-28
-3.68217e-28
6.6368e-28
3.59953e-27
3.91464e-27
-1.1977e-26
-4.79124e-26
-3.94838e-26
1.69692e-25
5.82864e-25
4.2446e-25
-1.98673e-24
-6.56461e-24
-5.25223e-24
1.91064e-23
6.8033e-23
6.99333e-23
-1.39867e-22
-6.28763e-22
-8.77811e-22
5.42653e-22
4.84341e-21
9.37389e-21
3.67501e-21
-2.66102e-20
-7.7941e-20
-9.36257e-20
4.52696e-20
4.32539e-19
9.17084e-19
8.66447e-19
-7.51507e-19
-4.56361e-18
-9.23072e-18
-9.99347e-18
8.61111e-19
2.97751e-17
7.38905e-17
1.12525e-16
1.0446e-16
-2.87422e-18
-2.51352e-16
-6.44696e-16
-1.12986e-15
-1.60104e-15
-1.93062e-15
-2.01654e-15
-1.82477e-15
-1.40565e-15
-8.74875e-16
-3.68406e-16
7.23429e-18
2.06536e-16
2.47301e-16
1.87947e-16
9.5038e-17
1.73612e-17
-2.44017e-17
-3.31494e-17
-2.32887e-17
-9.27369e-18
5.03479e-19
4.17083e-18
3.66673e-18
1.70665e-18
4.81636e-20
-7.88919e-19
-1.01433e-18
-9.90235e-19
-9.38315e-19
-9.19294e-19
-9.20417e-19
-9.23743e-19
-9.2447e-19
-9.24158e-19
-9.24014e-19
-9.24035e-19
-9.2405e-19
-9.24049e-19
4.68632e-38
2.70028e-36
3.45598e-36
-1.5699e-35
-5.86587e-35
1.18995e-35
4.87108e-34
8.64867e-34
-2.01962e-33
-1.05163e-32
-6.02036e-33
6.44574e-32
1.72856e-31
-1.03287e-31
-1.40425e-30
-2.17086e-30
4.89952e-30
2.43453e-29
1.90977e-29
-1.13805e-28
-3.57633e-28
-6.37541e-29
1.99986e-27
4.65211e-27
-1.48249e-27
-2.94403e-26
-5.59462e-26
3.69888e-26
3.79057e-25
6.48836e-25
-4.86628e-25
-4.34314e-24
-7.44515e-24
3.91024e-24
4.40306e-23
8.36567e-23
-4.38521e-24
-3.80337e-22
-8.77485e-22
-4.69743e-22
2.51968e-21
7.97095e-21
9.29473e-21
-8.33167e-21
-5.58391e-20
-1.07097e-19
-6.34147e-20
2.22297e-19
7.81989e-19
1.23125e-18
5.5006e-19
-2.58395e-18
-8.4459e-18
-1.40318e-17
-1.12955e-17
1.15794e-17
6.33107e-17
1.36801e-16
1.94793e-16
1.62625e-16
-6.21139e-17
-5.78344e-16
-1.43479e-15
-2.58566e-15
-3.87197e-15
-5.04563e-15
-5.83596e-15
-6.03714e-15
-5.58207e-15
-4.57019e-15
-3.2359e-15
-1.87021e-15
-7.28272e-16
4.02349e-17
4.14063e-16
4.75628e-16
3.57264e-16
1.85437e-16
4.43778e-17
-3.31101e-17
-5.33398e-17
-4.05732e-17
-1.87664e-17
-2.21726e-18
5.14481e-18
5.69562e-18
3.45449e-18
1.25278e-18
8.84881e-20
-2.23441e-19
-1.80188e-19
-1.03396e-19
-7.84859e-20
-8.20848e-20
-8.69623e-20
-8.75746e-20
-8.70331e-20
-8.68958e-20
-8.69392e-20
-8.69495e-20
1.12419e-36
6.58122e-36
-1.53254e-36
-5.77812e-35
-9.8698e-35
2.77298e-34
1.32554e-33
4.10382e-34
-9.42313e-33
-2.16529e-32
2.7513e-32
2.13422e-31
2.27244e-31
-1.05667e-30
-3.70856e-30
-2.7525e-31
2.43452e-29
5.15329e-29
-5.18476e-29
-4.34431e-28
-5.77354e-28
1.45518e-27
6.51436e-27
5.15185e-27
-2.67026e-26
-8.60049e-26
-3.59318e-26
3.90298e-25
1.03607e-24
2.17964e-25
-4.81813e-24
-1.16947e-23
-2.28215e-24
5.09869e-23
1.24849e-22
4.71324e-23
-4.53531e-22
-1.23959e-21
-8.94085e-22
3.13478e-21
1.09199e-20
1.29036e-20
-1.23828e-20
-7.82735e-20
-1.39303e-19
-4.81591e-20
3.76094e-19
1.06926e-18
1.32498e-18
-2.61458e-19
-4.822e-18
-1.09932e-17
-1.26498e-17
5.06342e-19
3.64962e-17
8.90116e-17
1.26181e-16
9.14956e-17
-7.40475e-17
-3.91897e-16
-8.08383e-16
-1.18921e-15
-1.36491e-15
-1.21612e-15
-7.55153e-16
-1.49911e-16
3.37565e-16
4.75455e-16
1.8329e-16
-4.2079e-16
-1.07649e-15
-1.51028e-15
-1.56396e-15
-1.2543e-15
-7.40264e-16
-2.27969e-16
1.27349e-16
2.73036e-16
2.503e-16
1.45978e-16
4.01213e-17
-2.41351e-17
-4.22047e-17
-3.16294e-17
-1.30972e-17
7.43258e-19
6.84511e-18
7.7088e-18
6.75903e-18
5.95763e-18
5.71098e-18
5.7467e-18
5.80551e-18
5.81961e-18
5.81422e-18
5.81093e-18
5.81112e-18
5.81154e-18
5.81155e-18
5.81152e-18
2.09469e-36
-3.94121e-36
-2.63333e-35
-1.87939e-35
1.80114e-34
5.12312e-34
-4.1581e-34
-4.87689e-33
-6.6324e-33
2.37913e-32
9.83994e-32
2.56386e-32
-6.63339e-31
-1.55543e-30
1.43784e-30
1.37687e-29
1.90974e-29
-5.18481e-29
-2.35365e-28
-1.66055e-28
1.13846e-27
3.48258e-27
5.55254e-28
-1.97281e-26
-4.63411e-26
1.25873e-26
2.91181e-25
5.75456e-25
-3.10345e-25
-3.78358e-24
-6.8922e-24
3.90633e-24
4.37545e-23
8.08558e-23
-2.62767e-23
-4.45553e-22
-9.15195e-22
-1.10097e-22
3.82966e-21
9.55172e-21
6.35985e-21
-2.47636e-20
-8.56993e-20
-1.08398e-19
7.15678e-20
5.90224e-19
1.18612e-18
7.81273e-19
-2.28618e-18
-8.44476e-18
-1.34864e-17
-6.13227e-18
2.79856e-17
9.08416e-17
1.47513e-16
1.09578e-16
-1.44078e-16
-6.84272e-16
-1.39478e-15
-1.84428e-15
-1.27111e-15
1.22897e-15
6.31244e-15
1.39317e-14
2.30501e-14
3.17463e-14
3.77636e-14
3.93204e-14
3.58267e-14
2.81574e-14
1.83356e-14
8.77073e-15
1.4075e-15
-2.83781e-15
-4.15626e-15
-3.49424e-15
-2.01105e-15
-6.18524e-16
2.32371e-16
5.112e-16
4.22416e-16
2.08976e-16
3.28365e-17
-5.09382e-17
-5.97886e-17
-3.48373e-17
-7.9777e-18
7.86173e-18
1.33479e-17
1.36939e-17
1.29106e-17
1.24933e-17
1.24549e-17
1.25069e-17
1.2527e-17
1.25242e-17
1.25211e-17
1.25211e-17
1.25214e-17
1.25214e-17
-2.71824e-36
-4.98473e-35
-4.54675e-35
3.25806e-34
1.00106e-33
-6.79201e-34
-9.24838e-33
-1.28124e-32
4.56536e-32
1.86703e-31
3.23687e-32
-1.29503e-30
-2.82677e-30
3.41675e-30
2.64522e-29
3.06134e-29
-1.13805e-28
-4.34432e-28
-1.66057e-28
2.39722e-27
6.03756e-27
-1.88908e-27
-4.00066e-26
-7.39669e-26
7.1497e-26
5.70013e-25
8.38443e-25
-1.25865e-24
-7.20052e-24
-9.32389e-24
1.59795e-23
8.21306e-23
1.06347e-22
-1.52436e-22
-8.44478e-22
-1.23429e-21
9.43842e-22
7.60578e-21
1.37033e-20
2.59989e-22
-5.56756e-20
-1.33665e-19
-1.01914e-19
2.67023e-19
1.03151e-18
1.54611e-18
1.16473e-19
-5.11955e-18
-1.31913e-17
-1.61152e-17
2.12517e-18
5.66442e-17
1.38934e-16
1.87994e-16
7.95521e-17
-3.32633e-16
-1.10186e-15
-2.0196e-15
-2.46764e-15
-1.4019e-15
2.44173e-15
1.0117e-14
2.19328e-14
3.70322e-14
5.33084e-14
6.77784e-14
7.73492e-14
7.97394e-14
7.42202e-14
6.18899e-14
4.53631e-14
2.79807e-14
1.2833e-14
1.95093e-15
-4.06589e-15
-5.90744e-15
-5.03191e-15
-3.02402e-15
-1.09179e-15
1.52854e-16
6.34492e-16
5.91552e-16
3.35462e-16
9.26578e-17
-4.29314e-17
-7.78808e-17
-5.99711e-17
-3.2149e-17
-1.46302e-17
-8.84571e-18
-8.93466e-18
-1.00369e-17
-1.04886e-17
-1.04683e-17
-1.03921e-17
-1.03773e-17
-1.0385e-17
-1.03876e-17
-1.03871e-17
-1.03869e-17
-1.9086e-35
-7.87787e-35
7.35326e-35
7.99572e-34
9.37671e-34
-4.68378e-33
-1.66291e-32
4.34964e-33
1.37338e-31
2.37801e-31
-5.57519e-31
-2.86054e-30
-1.68257e-30
1.69693e-29
4.59908e-29
-2.33093e-29
-3.57631e-28
-5.77353e-28
1.13845e-27
6.03754e-27
5.40485e-27
-2.58345e-26
-8.67887e-26
-3.01761e-26
4.39511e-25
1.10815e-24
-7.67054e-26
-6.22068e-24
-1.30594e-23
4.19781e-24
7.62856e-23
1.46805e-22
-5.07958e-23
-8.20804e-22
-1.59745e-21
1.93069e-22
7.64817e-21
1.65527e-20
4.87464e-21
-5.85871e-20
-1.55615e-19
-1.26181e-19
3.16322e-19
1.22726e-18
1.71597e-18
-4.02761e-19
-7.06174e-18
-1.55301e-17
-1.35742e-17
1.81372e-17
8.73239e-17
1.56519e-16
1.19913e-16
-1.62424e-16
-7.37452e-16
-1.3714e-15
-1.43609e-15
-6.11583e-17
3.34266e-15
8.33795e-15
1.29376e-14
1.38467e-14
7.71759e-15
-6.95651e-15
-2.82852e-14
-5.08368e-14
-6.73693e-14
-7.18303e-14
-6.21599e-14
-4.1375e-14
-1.62973e-14
5.42494e-15
1.84408e-14
2.14328e-14
1.68187e-14
8.90879e-15
1.70066e-15
-2.57768e-15
-3.71273e-15
-2.80192e-15
-1.24922e-15
-3.5925e-17
5.02925e-16
5.05764e-16
2.75697e-16
4.99442e-17
-7.67924e-17
-1.15429e-16
-1.12335e-16
-1.02359e-16
-9.77582e-17
-9.75114e-17
-9.82212e-17
-9.84965e-17
-9.84601e-17
-9.84119e-17
-9.8409e-17
-9.84145e-17
-9.84151e-17
-9.84148e-17
-2.46066e-35
1.40174e-34
4.44485e-34
-2.96647e-34
-4.21649e-33
-5.93715e-33
2.16323e-32
8.94145e-32
1.30402e-32
-6.48977e-31
-1.40934e-30
1.87827e-30
1.39671e-29
1.5404e-29
-6.52758e-29
-2.40705e-28
-6.37508e-29
1.45518e-27
3.48257e-27
-1.88911e-27
-2.58345e-26
-4.37869e-26
6.16095e-26
3.93372e-25
4.99458e-25
-1.15292e-24
-5.34781e-24
-5.52497e-24
1.65595e-23
6.65021e-23
6.41961e-23
-1.93255e-22
-7.63248e-22
-8.08787e-22
1.79713e-21
7.99807e-21
1.04448e-20
-1.15647e-20
-7.37335e-20
-1.25753e-19
1.1557e-20
5.51333e-19
1.29253e-18
9.61204e-19
-2.67805e-18
-1.02901e-17
-1.56075e-17
-1.52681e-18
5.17724e-17
1.36317e-16
1.70868e-16
-1.51459e-17
-5.92064e-16
-1.48293e-15
-2.03205e-15
-8.62897e-16
3.66277e-15
1.21032e-14
2.19489e-14
2.59698e-14
1.2372e-14
-3.20895e-14
-1.16259e-13
-2.38086e-13
-3.80885e-13
-5.15291e-13
-6.07521e-13
-6.31187e-13
-5.77611e-13
-4.59744e-13
-3.07614e-13
-1.57353e-13
-3.87747e-14
3.3119e-14
5.9762e-14
5.43223e-14
3.39516e-14
1.28716e-14
-1.17744e-15
-6.79308e-15
-6.45442e-15
-3.65433e-15
-9.7648e-16
4.99027e-16
8.37992e-16
5.76624e-16
2.02477e-16
-4.71671e-17
-1.4692e-16
-1.61099e-16
-1.5092e-16
-1.43717e-16
-1.42464e-16
-1.43163e-16
-1.4355e-16
-1.43538e-16
-1.43486e-16
-1.43481e-16
-1.43486e-16
-1.43486e-16
6.24918e-35
7.65304e-34
4.93673e-34
-5.40266e-33
-1.44624e-32
1.55147e-32
1.44833e-31
1.62009e-31
-7.92995e-31
-2.78565e-30
3.6381e-31
2.10352e-29
3.94563e-29
-6.88592e-29
-4.12066e-28
-3.68219e-28
1.99986e-27
6.51436e-27
5.55265e-28
-4.00066e-26
-8.67888e-26
6.16093e-26
6.47803e-25
1.01146e-24
-1.56472e-24
-9.04646e-24
-1.086e-23
2.53899e-23
1.12926e-22
1.15883e-22
-3.1865e-22
-1.28486e-21
-1.31646e-21
3.17557e-21
1.33367e-20
1.5839e-20
-2.33853e-20
-1.23239e-19
-1.85885e-19
8.15786e-20
9.5208e-19
1.92633e-18
8.68678e-19
-5.26637e-18
-1.59405e-17
-1.95543e-17
8.78595e-18
8.93362e-17
1.91552e-16
1.832e-16
-1.55456e-16
-9.66049e-16
-1.98248e-15
-2.20582e-15
4.85266e-17
6.33676e-15
1.64251e-14
2.63197e-14
2.71207e-14
5.91825e-15
-5.07542e-14
-1.51682e-13
-2.95885e-13
-4.69969e-13
-6.4936e-13
-8.03386e-13
-9.02687e-13
-9.26713e-13
-8.69168e-13
-7.39918e-13
-5.62806e-13
-3.69807e-13
-1.92996e-13
-5.66601e-14
2.79196e-14
6.33467e-14
6.26058e-14
4.29152e-14
1.95835e-14
2.1392e-15
-6.37659e-15
-7.60485e-15
-5.08232e-15
-1.94321e-15
1.50632e-16
9.35157e-16
8.89584e-16
5.86058e-16
3.54598e-16
2.65005e-16
2.59397e-16
2.73315e-16
2.80211e-16
2.80353e-16
2.79311e-16
2.79049e-16
2.79144e-16
2.79187e-16
2.7918e-16
2.79177e-16
2.8454e-34
7.88087e-34
-1.65055e-33
-9.7852e-33
-5.35285e-33
6.93685e-32
1.78932e-31
-1.9576e-31
-1.77701e-30
-2.02978e-30
9.3096e-30
3.36254e-29
-3.97245e-32
-2.40113e-28
-4.86585e-28
6.63673e-28
4.65209e-27
5.15184e-27
-1.97281e-26
-7.39667e-26
-3.01761e-26
3.93372e-25
1.01146e-24
-1.95771e-25
-6.31094e-24
-1.23814e-23
8.73131e-24
8.68635e-23
1.41784e-22
-1.48218e-22
-1.05788e-21
-1.58661e-21
1.71643e-21
1.15253e-20
1.77283e-20
-1.35006e-20
-1.11175e-19
-1.93729e-19
3.84477e-20
9.11376e-19
1.9543e-18
8.61967e-19
-5.718e-18
-1.68055e-17
-1.82249e-17
1.8487e-17
1.09641e-16
1.98769e-16
1.06008e-16
-4.02843e-16
-1.32306e-15
-1.96753e-15
-7.86251e-16
3.8962e-15
1.18699e-14
1.84973e-14
1.38377e-14
-1.38094e-14
-6.89118e-14
-1.37325e-13
-1.79897e-13
-1.3925e-13
3.74036e-14