/*--------------------------------*- C++ -*----------------------------------*\
  =========                 |
  \\      /  F ield         | OpenFOAM: The Open Source CFD Toolbox
   \\    /   O peration     | Website:  https://openfoam.org
    \\  /    A nd           | Version:  13
     \\/     M anipulation  |
\*---------------------------------------------------------------------------*/
FoamFile
{
    format      ascii;
    class       volScalarField;
    location    "8.8";
    object      T;
}
// * * * * * * * * * * * * * * * * * * * * * * * * * * * * * * * * * * * * * //

dimensions      [0 0 0 1 0 0 0];

internalField   nonuniform List<scalar> 
10000
(
-3.26734e-25
-1.65122e-24
-1.51936e-24
3.61351e-24
1.51036e-23
2.01703e-23
-1.60749e-23
-1.21898e-22
-2.2263e-22
-3.48875e-23
8.0413e-22
2.04714e-21
1.75848e-21
-3.6123e-21
-1.52086e-20
-2.29473e-20
4.94782e-22
8.3333e-20
1.97771e-19
1.85178e-19
-2.29917e-19
-1.17287e-18
-2.06158e-18
-1.16129e-18
3.764e-18
1.27004e-17
1.90764e-17
7.77448e-18
-3.76185e-17
-1.13423e-16
-1.67187e-16
-8.81919e-17
2.43009e-16
8.23256e-16
1.35515e-15
1.17074e-15
-5.57511e-16
-4.20243e-15
-8.80797e-15
-1.14617e-14
-7.65323e-15
6.83561e-15
3.27105e-14
6.38932e-14
8.62597e-14
8.02331e-14
2.75585e-14
-7.97501e-14
-2.32231e-13
-4.01704e-13
-5.47934e-13
-6.3159e-13
-6.28459e-13
-5.38734e-13
-3.87118e-13
-2.13629e-13
-5.92473e-14
4.73672e-14
9.68525e-14
9.79669e-14
7.01907e-14
3.4346e-14
5.39408e-15
-1.03798e-14
-1.40429e-14
-1.04745e-14
-4.83122e-15
-4.41777e-16
1.60499e-15
1.75728e-15
1.00247e-15
1.53231e-16
-4.07494e-16
-6.47362e-16
-6.89936e-16
-6.62098e-16
-6.33276e-16
-6.21379e-16
-6.2071e-16
-6.22909e-16
-6.2419e-16
-6.24355e-16
-6.24169e-16
-6.24058e-16
-6.24052e-16
-6.24071e-16
-6.24079e-16
-6.24077e-16
-6.24076e-16
-6.24075e-16
-6.24076e-16
-6.24076e-16
-6.24076e-16
-6.24076e-16
-6.24076e-16
-6.24076e-16
-6.24076e-16
-6.24076e-16
-6.24076e-16
-6.24076e-16
-1.65122e-24
7.96882e-26
8.52259e-24
1.96219e-23
9.75363e-24
-6.05715e-23
-1.85417e-22
-1.90908e-22
3.03434e-22
1.49854e-21
2.38664e-21
-1.51712e-22
-9.61233e-21
-2.2614e-20
-1.84853e-20
3.91079e-20
1.62442e-19
2.54091e-19
4.28317e-20
-7.82776e-19
-2.06094e-18
-2.39833e-18
9.81085e-19
1.02759e-17
2.21481e-17
2.20498e-17
-1.46092e-17
-1.03864e-16
-2.13696e-16
-2.23336e-16
6.63343e-17
8.04716e-16
1.82503e-15
2.34929e-15
9.50469e-16
-3.8524e-15
-1.21669e-14
-2.08177e-14
-2.20887e-14
-4.81512e-15
4.07538e-14
1.14438e-13
1.96587e-13
2.42488e-13
1.86257e-13
-4.27978e-14
-4.93714e-13
-1.16584e-12
-1.99143e-12
-2.83959e-12
-3.54469e-12
-3.95243e-12
-3.96748e-12
-3.58462e-12
-2.89094e-12
-2.03785e-12
-1.19425e-12
-4.98618e-13
-2.70391e-14
2.13999e-13
2.71938e-13
2.19766e-13
1.27723e-13
4.47479e-14
-6.92624e-15
-2.65799e-14
-2.49148e-14
-1.45937e-14
-4.58449e-15
1.29512e-15
3.07294e-15
2.45601e-15
1.14837e-15
1.15893e-16
-3.9708e-16
-5.3231e-16
-5.06059e-16
-4.57354e-16
-4.32861e-16
-4.29184e-16
-4.32386e-16
-4.34774e-16
-4.35247e-16
-4.34976e-16
-4.34775e-16
-4.34752e-16
-4.34783e-16
-4.34796e-16
-4.34794e-16
-4.34791e-16
-4.34791e-16
-4.34792e-16
-4.34792e-16
-4.34792e-16
-4.34792e-16
-4.34792e-16
-4.34792e-16
-4.34792e-16
-4.34792e-16
-4.34792e-16
-1.51936e-24
8.52259e-24
2.40974e-23
1.94542e-23
-5.77339e-23
-2.1878e-22
-2.75688e-22
2.49398e-22
1.7116e-21
3.06473e-21
5.32005e-22
-1.06496e-20
-2.7436e-20
-2.53617e-20
4.1231e-20
1.9152e-19
3.11185e-19
6.9606e-20
-9.16731e-19
-2.44869e-18
-2.82303e-18
1.28666e-18
1.23116e-17
2.57523e-17
2.38686e-17
-2.1432e-17
-1.24624e-16
-2.40534e-16
-2.2435e-16
1.39489e-16
9.72669e-16
2.00688e-15
2.31635e-15
4.06737e-16
-4.99432e-15
-1.33973e-14
-2.08405e-14
-1.92716e-14
1.49787e-15
4.85098e-14
1.18006e-13
1.88375e-13
2.17781e-13
1.49757e-13
-7.28828e-14
-4.89229e-13
-1.10283e-12
-1.87211e-12
-2.71265e-12
-3.5112e-12
-4.14768e-12
-4.51958e-12
-4.56333e-12
-4.26813e-12
-3.67953e-12
-2.89121e-12
-2.02582e-12
-1.20858e-12
-5.40213e-13
-7.7117e-14
1.75214e-13
2.54112e-13
2.2092e-13
1.39118e-13
5.72255e-14
1.1382e-15
-2.40131e-14
-2.60731e-14
-1.69626e-14
-6.33386e-15
9.06931e-16
3.98395e-15
4.2732e-15
3.48214e-15
2.70443e-15
2.30331e-15
2.20935e-15
2.24374e-15
2.28771e-15
2.30585e-15
2.3061e-15
2.30231e-15
2.30046e-15
2.30043e-15
2.30079e-15
2.30093e-15
2.30091e-15
2.30087e-15
2.30087e-15
2.30087e-15
2.30088e-15
2.30088e-15
2.30087e-15
2.30087e-15
2.30087e-15
2.30087e-15
2.30087e-15
2.30087e-15
2.30087e-15
2.30087e-15
3.61351e-24
1.96219e-23
1.94541e-23
-3.9561e-23
-1.77453e-22
-2.49615e-22
1.57875e-22
1.40978e-21
2.69069e-21
6.87623e-22
-9.0689e-21
-2.42361e-20
-2.26248e-20
3.82931e-20
1.75993e-19
2.78749e-19
2.70872e-20
-9.30934e-19
-2.32364e-18
-2.34912e-18
2.267e-18
1.32969e-17
2.45018e-17
1.59842e-17
-3.92653e-17
-1.44388e-16
-2.27917e-16
-1.16217e-16
3.90847e-16
1.27922e-15
1.9826e-15
1.24025e-15
-2.38958e-15
-9.06845e-15
-1.56818e-14
-1.47946e-14
3.25614e-15
4.36934e-14
9.74322e-14
1.33465e-13
1.01715e-13
-4.72571e-14
-3.27365e-13
-6.80441e-13
-9.60466e-13
-9.59198e-13
-4.7761e-13
5.77846e-13
2.11659e-12
3.848e-12
5.35082e-12
6.21085e-12
6.17287e-12
5.23997e-12
3.67433e-12
1.89844e-12
3.41417e-13
-7.0197e-13
-1.14374e-12
-1.08723e-12
-7.45651e-13
-3.40967e-13
-2.79139e-14
1.33762e-13
1.62567e-13
1.15568e-13
5.00212e-14
1.39363e-15
-1.99578e-14
-2.02437e-14
-1.09726e-14
-1.19508e-15
5.04383e-15
7.60262e-15
7.98136e-15
7.62633e-15
7.29663e-15
7.16911e-15
7.16684e-15
7.19327e-15
7.20747e-15
7.20885e-15
7.20657e-15
7.20535e-15
7.20532e-15
7.20555e-15
7.20563e-15
7.20561e-15
7.20559e-15
7.20559e-15
7.20559e-15
7.20559e-15
7.20559e-15
7.20559e-15
7.20559e-15
7.20559e-15
7.20559e-15
7.20559e-15
7.20559e-15
7.20559e-15
1.51036e-23
9.75363e-24
-5.77339e-23
-1.77453e-22
-1.71426e-22
3.5135e-22
1.56079e-21
2.26219e-21
-1.00294e-21
-1.15673e-20
-2.37422e-20
-1.14816e-20
6.45811e-20
1.99691e-19
2.38652e-19
-1.65149e-19
-1.27481e-18
-2.49941e-18
-1.5471e-18
4.98209e-18
1.74957e-17
2.58721e-17
4.92535e-18
-7.29718e-17
-1.95299e-16
-2.48701e-16
-2.32029e-18
7.59348e-16
1.88608e-15
2.41848e-15
4.98277e-16
-5.69434e-15
-1.55817e-14
-2.31264e-14
-1.55251e-14
2.26384e-14
9.71197e-14
1.85654e-13
2.23117e-13
1.06278e-13
-2.66621e-13
-9.19207e-13
-1.70474e-12
-2.24411e-12
-1.94856e-12
-1.60706e-13
3.60246e-12
9.3822e-12
1.6603e-11
2.40954e-11
3.03541e-11
3.39661e-11
3.40598e-11
3.05973e-11
2.43913e-11
1.68372e-11
9.46948e-12
3.51726e-12
-3.81857e-13
-2.22996e-12
-2.50542e-12
-1.89034e-12
-1.01132e-12
-2.80583e-13
1.37784e-13
2.67254e-13
2.20623e-13
1.1495e-13
2.56569e-14
-2.05437e-14
-2.97305e-14
-1.98874e-14
-6.43306e-15
2.984e-15
7.20959e-15
8.09285e-15
7.71914e-15
7.27133e-15
7.07747e-15
7.06193e-15
7.09433e-15
7.11382e-15
7.11639e-15
7.11364e-15
7.11204e-15
7.11198e-15
7.11226e-15
7.11235e-15
7.11233e-15
7.11231e-15
7.11231e-15
7.11231e-15
7.11231e-15
7.11231e-15
7.11231e-15
7.11231e-15
7.11231e-15
7.11231e-15
7.11231e-15
7.11231e-15
2.01703e-23
-6.05714e-23
-2.1878e-22
-2.49615e-22
3.5135e-22
1.89026e-21
3.00725e-21
-6.64812e-22
-1.38127e-20
-3.02109e-20
-1.74411e-20
7.59907e-20
2.48681e-19
3.0867e-19
-1.84756e-19
-1.57552e-18
-3.12785e-18
-1.95004e-18
6.22141e-18
2.17716e-17
3.17562e-17
4.70049e-18
-9.25063e-17
-2.40763e-16
-2.95714e-16
2.45148e-17
9.63494e-16
2.29469e-15
2.81198e-15
2.99263e-16
-7.24789e-15
-1.8795e-14
-2.68469e-14
-1.63772e-14
2.98082e-14
1.16771e-13
2.17145e-13
2.55782e-13
1.16321e-13
-3.15185e-13
-1.0682e-12
-1.98884e-12
-2.6683e-12
-2.45035e-12
-5.52261e-13
3.70787e-12
1.06355e-11
1.9931e-11
3.06065e-11
4.11083e-11
4.96368e-11
5.45843e-11
5.49586e-11
5.06589e-11
4.25113e-11
3.20487e-11
2.1106e-11
1.13585e-11
3.94965e-12
-6.89306e-13
-2.79432e-12
-3.04823e-12
-2.28597e-12
-1.2346e-12
-3.62504e-13
1.44422e-13
3.11639e-13
2.66946e-13
1.45542e-13
3.71344e-14
-2.39599e-14
-4.20702e-14
-3.66273e-14
-2.51627e-14
-1.67629e-14
-1.31705e-14
-1.26604e-14
-1.31809e-14
-1.363e-14
-1.37785e-14
-1.37619e-14
-1.37216e-14
-1.37059e-14
-1.37073e-14
-1.3711e-14
-1.37121e-14
-1.37117e-14
-1.37114e-14
-1.37114e-14
-1.37115e-14
-1.37115e-14
-1.37115e-14
-1.37115e-14
-1.37115e-14
-1.37115e-14
-1.37115e-14
-1.37115e-14
-1.37115e-14
-1.37115e-14
-1.37115e-14
-1.60749e-23
-1.85417e-22
-2.75688e-22
1.57875e-22
1.56079e-21
3.00725e-21
5.49616e-22
-1.11374e-20
-2.85858e-20
-2.29613e-20
5.87026e-20
2.28892e-19
3.18552e-19
-1.07731e-19
-1.44286e-18
-3.04616e-18
-2.06788e-18
5.86898e-18
2.12614e-17
3.07728e-17
2.01228e-18
-9.72548e-17
-2.40147e-16
-2.65909e-16
1.15218e-16
1.09786e-15
2.29588e-15
2.27404e-15
-1.19903e-15
-9.3778e-15
-1.92768e-14
-2.08762e-14
1.17693e-15
5.73973e-14
1.35356e-13
1.83072e-13
1.11848e-13
-1.6407e-13
-6.50562e-13
-1.19016e-12
-1.43152e-12
-9.12223e-13
7.29775e-13
3.48291e-12
6.76995e-12
9.49259e-12
1.03815e-11
8.55754e-12
4.05625e-12
-1.97801e-12
-7.59755e-12
-1.07831e-11
-1.02887e-11
-6.19578e-12
1.01755e-13
6.48072e-12
1.09568e-11
1.2427e-11
1.0966e-11
7.60117e-12
3.74602e-12
5.98027e-13
-1.23296e-12
-1.76577e-12
-1.43115e-12
-7.66058e-13
-1.76532e-13
1.55687e-13
2.38424e-13
1.73335e-13
6.67767e-14
-1.69818e-14
-5.99898e-14
-7.19925e-14
-6.96879e-14
-6.48687e-14
-6.21132e-14
-6.14836e-14
-6.17396e-14
-6.20258e-14
-6.21211e-14
-6.21068e-14
-6.20804e-14
-6.20722e-14
-6.20742e-14
-6.20766e-14
-6.2077e-14
-6.20766e-14
-6.20765e-14
-6.20765e-14
-6.20765e-14
-6.20765e-14
-6.20765e-14
-6.20765e-14
-6.20765e-14
-6.20765e-14
-6.20765e-14
-6.20765e-14
-6.20765e-14
-6.20765e-14
-1.21898e-22
-1.90908e-22
2.49398e-22
1.40978e-21
2.26219e-21
-6.64812e-22
-1.11374e-20
-2.37536e-20
-1.08736e-20
7.03242e-20
2.1171e-19
2.30071e-19
-2.70517e-19
-1.53125e-18
-2.6647e-18
-7.29216e-19
8.0019e-18
2.19801e-17
2.47912e-17
-1.67854e-17
-1.2617e-16
-2.50013e-16
-1.8814e-16
3.616e-16
1.4909e-15
2.49993e-15
1.47208e-15
-4.05699e-15
-1.44047e-14
-2.34247e-14
-1.5818e-14
2.78488e-14
1.13066e-13
2.02965e-13
1.97603e-13
-4.65279e-14
-6.26535e-13
-1.43658e-12
-2.01349e-12
-1.51885e-12
9.96511e-13
5.99236e-12
1.26481e-11
1.82502e-11
1.82361e-11
7.23056e-12
-1.90025e-11
-6.13031e-11
-1.15543e-10
-1.72672e-10
-2.20747e-10
-2.48445e-10
-2.48782e-10
-2.21547e-10
-1.73403e-10
-1.15617e-10
-6.03609e-11
-1.70758e-11
9.74472e-12
2.07609e-11
2.02677e-11
1.38778e-11
6.4404e-12
8.82977e-13
-1.89518e-12
-2.39993e-12
-1.69293e-12
-7.25729e-13
-3.31875e-14
2.57247e-13
2.5598e-13
1.32405e-13
8.50069e-15
-6.68797e-14
-9.59024e-14
-9.92638e-14
-9.48505e-14
-9.12281e-14
-8.99891e-14
-9.00553e-14
-9.03484e-14
-9.04802e-14
-9.04823e-14
-9.04573e-14
-9.0447e-14
-9.0448e-14
-9.04503e-14
-9.04508e-14
-9.04505e-14
-9.04504e-14
-9.04504e-14
-9.04504e-14
-9.04504e-14
-9.04504e-14
-9.04504e-14
-9.04504e-14
-9.04504e-14
-9.04504e-14
-9.04504e-14
-9.04504e-14
-2.2263e-22
3.03434e-22
1.7116e-21
2.69069e-21
-1.00294e-21
-1.38127e-20
-2.85858e-20
-1.08736e-20
9.06258e-20
2.59948e-19
2.62317e-19
-3.8695e-19
-1.93773e-18
-3.18956e-18
-4.40356e-19
1.06752e-17
2.73941e-17
2.82282e-17
-2.7782e-17
-1.6517e-16
-3.07654e-16
-1.97341e-16
5.31638e-16
1.94236e-15
3.07267e-15
1.46676e-15
-5.85868e-15
-1.89166e-14
-2.93712e-14
-1.74884e-14
4.09739e-14
1.51439e-13
2.64398e-13
2.4917e-13
-8.16692e-14
-8.58125e-13
-1.94989e-12
-2.75478e-12
-2.14412e-12
1.23957e-12
8.22702e-12
1.80276e-11
2.72036e-11
2.93225e-11
1.58454e-11
-2.15803e-11
-8.78858e-11
-1.81484e-10
-2.9265e-10
-4.04432e-10
-4.96254e-10
-5.49318e-10
-5.5205e-10
-5.03632e-10
-4.14312e-10
-3.02346e-10
-1.88697e-10
-9.13987e-11
-2.14606e-11
1.85214e-11
3.30485e-11
3.06361e-11
2.03664e-11
9.2942e-12
1.31428e-12
-2.59485e-12
-3.31081e-12
-2.36051e-12
-1.04919e-12
-9.34836e-14
3.36932e-13
3.83765e-13
2.64152e-13
1.3385e-13
5.55608e-14
2.80131e-14
2.73094e-14
3.33567e-14
3.73383e-14
3.83426e-14
3.80331e-14
3.76624e-14
3.75503e-14
3.75761e-14
3.76088e-14
3.7616e-14
3.76121e-14
3.76096e-14
3.76096e-14
3.76101e-14
3.76102e-14
3.76101e-14
3.76101e-14
3.76101e-14
3.76101e-14
3.76101e-14
3.76101e-14
3.76101e-14
3.76101e-14
3.76101e-14
-3.48876e-23
1.49854e-21
3.06473e-21
6.87624e-22
-1.15673e-20
-3.02109e-20
-2.29613e-20
7.03242e-20
2.59948e-19
3.3474e-19
-2.31379e-19
-1.85225e-18
-3.52434e-18
-1.41608e-18
9.70832e-18
2.83862e-17
3.30252e-17
-2.13129e-17
-1.66124e-16
-3.26228e-16
-2.25778e-16
5.35241e-16
2.02472e-15
3.18032e-15
1.34139e-15
-6.53932e-15
-1.98931e-14
-2.88815e-14
-1.23582e-14
5.21471e-14
1.61276e-13
2.5029e-13
1.7912e-13
-2.16882e-13
-9.86185e-13
-1.8666e-12
-2.15962e-12
-8.48664e-13
2.91718e-12
9.04204e-12
1.57316e-11
1.92645e-11
1.46842e-11
-2.6014e-12
-3.48757e-11
-8.0753e-11
-1.352e-10
-1.91083e-10
-2.41546e-10
-2.81986e-10
-3.10615e-10
-3.27448e-10
-3.3254e-10
-3.24805e-10
-3.02316e-10
-2.64009e-10
-2.11692e-10
-1.50966e-10
-9.02839e-11
-3.84412e-11
-1.71474e-12
1.79634e-11
2.30298e-11
1.87011e-11
1.07011e-11
3.37447e-12
-1.153e-12
-2.74012e-12
-2.37205e-12
-1.25029e-12
-2.18651e-13
3.86168e-13
5.95676e-13
5.8622e-13
5.15718e-13
4.63624e-13
4.44371e-13
4.44314e-13
4.4884e-13
4.5149e-13
4.51922e-13
4.51567e-13
4.51309e-13
4.5127e-13
4.51307e-13
4.51328e-13
4.51328e-13
4.51324e-13
4.51323e-13
4.51323e-13
4.51324e-13
4.51324e-13
4.51324e-13
4.51324e-13
4.51324e-13
4.51324e-13
4.51324e-13
4.51324e-13
4.51324e-13
4.51324e-13
8.04131e-22
2.38665e-21
5.32006e-22
-9.0689e-21
-2.37422e-20
-1.74411e-20
5.87027e-20
2.1171e-19
2.62317e-19
-2.31379e-19
-1.59552e-18
-2.89588e-18
-7.41961e-19
9.26247e-18
2.49527e-17
2.55427e-17
-2.95777e-17
-1.6262e-16
-2.86722e-16
-1.25601e-16
6.77007e-16
2.05609e-15
2.72949e-15
-8.16887e-17
-8.91907e-15
-2.13599e-14
-2.43047e-14
5.69748e-15
8.61403e-14
1.92868e-13
2.22674e-13
4.99617e-16
-6.12007e-13
-1.49327e-12
-2.02385e-12
-1.07259e-12
2.50708e-12
8.76975e-12
1.53198e-11
1.66259e-11
5.19328e-12
-2.47057e-11
-7.13962e-11
-1.20669e-10
-1.44654e-10
-1.07543e-10
2.17539e-11
2.53893e-10
5.67208e-10
9.06571e-10
1.19613e-09
1.36272e-09
1.36119e-09
1.19098e-09
8.9652e-10
5.51385e-10
2.32876e-10
-2.08901e-12
-1.3065e-10
-1.63508e-10
-1.33031e-10
-7.69479e-11
-2.48643e-11
8.08262e-12
2.02641e-11
1.81537e-11
1.02109e-11
2.73029e-12
-1.5252e-12
-2.60288e-12
-1.83943e-12
-5.87217e-13
3.78901e-13
8.67367e-13
1.00713e-12
9.91611e-13
9.48716e-13
9.24864e-13
9.19981e-13
9.22326e-13
9.24564e-13
9.25175e-13
9.25003e-13
9.24811e-13
9.24769e-13
9.24791e-13
9.24806e-13
9.24806e-13
9.24804e-13
9.24803e-13
9.24804e-13
9.24804e-13
9.24804e-13
9.24804e-13
9.24804e-13
9.24804e-13
9.24804e-13
9.24804e-13
9.24804e-13
9.24804e-13
2.04714e-21
-1.51709e-22
-1.06496e-20
-2.42361e-20
-1.14816e-20
7.59907e-20
2.28892e-19
2.30071e-19
-3.8695e-19
-1.85225e-18
-2.89588e-18
3.14526e-19
1.19437e-17
2.75503e-17
2.16152e-17
-4.96473e-17
-1.98903e-16
-3.04186e-16
-3.61301e-17
9.70576e-16
2.49083e-15
2.81295e-15
-1.38122e-15
-1.25759e-14
-2.64682e-14
-2.54219e-14
1.95621e-14
1.26055e-13
2.53397e-13
2.56493e-13
-9.75809e-14
-9.73955e-13
-2.15676e-12
-2.71459e-12
-9.81476e-13
4.7182e-12
1.43963e-11
2.42201e-11
2.5158e-11
4.38953e-12
-4.89669e-11
-1.34061e-10
-2.27561e-10
-2.77651e-10
-2.08926e-10
5.86327e-11
5.79544e-10
1.35136e-09
2.29557e-09
3.26264e-09
4.06461e-09
4.52704e-09
4.54259e-09
4.10578e-09
3.31533e-09
2.34264e-09
1.37918e-09
5.82438e-10
3.97514e-11
-2.40266e-10
-3.10451e-10
-2.5328e-10
-1.48829e-10
-5.34675e-11
6.67095e-12
3.01295e-11
2.88074e-11
1.71563e-11
5.58873e-12
-1.33835e-12
-3.52997e-12
-2.89883e-12
-1.41286e-12
-2.13379e-13
3.93108e-13
5.58465e-13
5.31117e-13
4.74558e-13
4.45357e-13
4.40648e-13
4.44299e-13
4.47135e-13
4.47727e-13
4.47419e-13
4.47178e-13
4.47148e-13
4.47183e-13
4.472e-13
4.47198e-13
4.47195e-13
4.47194e-13
4.47195e-13
4.47195e-13
4.47195e-13
4.47195e-13
4.47195e-13
4.47195e-13
4.47195e-13
4.47195e-13
4.47195e-13
1.75848e-21
-9.61233e-21
-2.7436e-20
-2.26248e-20
6.45811e-20
2.48681e-19
3.18552e-19
-2.70517e-19
-1.93773e-18
-3.52434e-18
-7.4196e-19
1.19437e-17
3.13818e-17
3.00089e-17
-4.47378e-17
-2.17239e-16
-3.61178e-16
-9.96002e-17
1.01981e-15
2.80598e-15
3.34884e-15
-1.19475e-15
-1.38279e-14
-2.98034e-14
-2.90447e-14
2.13612e-14
1.40513e-13
2.80377e-13
2.76262e-13
-1.26937e-13
-1.09152e-12
-2.34142e-12
-2.82718e-12
-7.78693e-13
5.42877e-12
1.54811e-11
2.50063e-11
2.45753e-11
1.64492e-12
-5.34283e-11
-1.38097e-10
-2.28337e-10
-2.74329e-10
-2.05628e-10
5.27518e-11
5.56544e-10
1.31809e-09
2.29064e-09
3.3678e-09
4.40002e-09
5.22447e-09
5.7007e-09
5.74287e-09
5.34031e-09
4.56109e-09
3.53711e-09
2.43396e-09
1.41328e-09
5.97749e-10
4.87934e-11
-2.37192e-10
-3.14559e-10
-2.6281e-10
-1.59662e-10
-6.17172e-11
2.77067e-12
3.00413e-11
3.07306e-11
1.92694e-11
6.77555e-12
-1.40894e-12
-4.69638e-12
-4.83898e-12
-3.83856e-12
-2.9227e-12
-2.46802e-12
-2.36942e-12
-2.41345e-12
-2.46458e-12
-2.4848e-12
-2.48463e-12
-2.48018e-12
-2.47811e-12
-2.47811e-12
-2.47853e-12
-2.47869e-12
-2.47866e-12
-2.47862e-12
-2.47861e-12
-2.47862e-12
-2.47862e-12
-2.47862e-12
-2.47862e-12
-2.47862e-12
-2.47862e-12
-2.47862e-12
-2.47862e-12
-2.47862e-12
-2.47862e-12
-2.47862e-12
-3.6123e-21
-2.2614e-20
-2.53617e-20
3.82931e-20
1.99691e-19
3.0867e-19
-1.07731e-19
-1.53125e-18
-3.18956e-18
-1.41608e-18
9.26247e-18
2.75503e-17
3.00089e-17
-3.27126e-17
-1.89866e-16
-3.33604e-16
-1.12439e-16
9.15834e-16
2.58784e-15
3.06059e-15
-1.396e-15
-1.35228e-14
-2.79744e-14
-2.39839e-14
3.0321e-14
1.47272e-13
2.63307e-13
1.97199e-13
-2.92363e-13
-1.27043e-12
-2.25017e-12
-1.95091e-12
1.32831e-12
8.32976e-12
1.66981e-11
1.94092e-11
5.9658e-12
-3.18478e-11
-9.02779e-11
-1.44517e-10
-1.47886e-10
-4.61462e-11
1.92822e-10
5.44405e-10
9.07171e-10
1.11671e-09
9.99976e-10
4.54636e-10
-4.81408e-10
-1.60958e-09
-2.62041e-09
-3.20136e-09
-3.15871e-09
-2.49759e-09
-1.42193e-09
-2.53473e-10
6.92064e-10
1.21529e-09
1.28439e-09
1.01371e-09
5.90813e-10
1.92462e-10
-7.33673e-11
-1.8247e-10
-1.72692e-10
-1.06057e-10
-3.5887e-11
9.32463e-12
2.51861e-11
2.12324e-11
9.8655e-12
-3.62061e-13
-6.27501e-12
-8.38307e-12
-8.47035e-12
-8.00508e-12
-7.66733e-12
-7.56038e-12
-7.5729e-12
-7.60348e-12
-7.61676e-12
-7.61679e-12
-7.61407e-12
-7.61292e-12
-7.61301e-12
-7.61327e-12
-7.61333e-12
-7.61331e-12
-7.61329e-12
-7.61329e-12
-7.61329e-12
-7.61329e-12
-7.61329e-12
-7.61329e-12
-7.61329e-12
-7.61329e-12
-7.61329e-12
-7.61329e-12
-7.61329e-12
-7.61329e-12
-1.52086e-20
-1.84854e-20
4.1231e-20
1.75993e-19
2.38652e-19
-1.84756e-19
-1.44286e-18
-2.6647e-18
-4.40358e-19
9.70832e-18
2.49527e-17
2.16152e-17
-4.47378e-17
-1.89866e-16
-2.8849e-16
8.21146e-18
1.07242e-15
2.56235e-15
2.40696e-15
-3.09429e-15
-1.57734e-14
-2.79183e-14
-1.55957e-14
5.32363e-14
1.80278e-13
2.72886e-13
1.08278e-13
-5.68461e-13
-1.72312e-12
-2.56514e-12
-1.32997e-12
4.01739e-12
1.36487e-11
2.27767e-11
1.97602e-11
-1.09985e-11
-7.83537e-11
-1.66988e-10
-2.21511e-10
-1.47076e-10
1.58176e-10
7.34627e-10
1.47451e-09
2.05859e-09
1.96795e-09
6.04976e-10
-2.48785e-09
-7.38094e-09
-1.35903e-08
-2.00898e-08
-2.55408e-08
-2.86804e-08
-2.87309e-08
-2.56662e-08
-2.0224e-08
-1.36582e-08
-7.33236e-09
-2.31795e-09
8.56675e-10
2.23748e-09
2.28483e-09
1.62063e-09
7.95678e-10
1.5458e-10
-1.8388e-10
-2.6321e-10
-1.96625e-10
-9.13417e-11
-1.11482e-11
2.56065e-11
2.87507e-11
1.65072e-11
2.92679e-12
-5.80403e-12
-9.40092e-12
-9.97329e-12
-9.53229e-12
-9.11417e-12
-8.95483e-12
-8.95297e-12
-8.98529e-12
-9.00181e-12
-9.00298e-12
-9.00023e-12
-8.9989e-12
-8.99894e-12
-8.99921e-12
-8.99928e-12
-8.99925e-12
-8.99923e-12
-8.99923e-12
-8.99923e-12
-8.99923e-12
-8.99923e-12
-8.99923e-12
-8.99923e-12
-8.99923e-12
-8.99923e-12
-8.99923e-12
-8.99923e-12
-2.29473e-20
3.91079e-20
1.9152e-19
2.78749e-19
-1.65149e-19
-1.57552e-18
-3.04616e-18
-7.29217e-19
1.06752e-17
2.83862e-17
2.55427e-17
-4.96473e-17
-2.17239e-16
-3.33604e-16
8.21157e-18
1.2462e-15
2.97949e-15
2.76572e-15
-3.7526e-15
-1.86664e-14
-3.26604e-14
-1.71839e-14
6.5498e-14
2.15922e-13
3.21053e-13
1.13225e-13
-7.0886e-13
-2.09141e-12
-3.06521e-12
-1.49067e-12
5.08591e-12
1.68515e-11
2.7964e-11
2.41655e-11
-1.39232e-11
-9.80497e-11
-2.1093e-10
-2.85374e-10
-2.01535e-10
1.78217e-10
9.2795e-10
1.94539e-09
2.85167e-09
2.96557e-09
1.40581e-09
-2.66732e-09
-9.72285e-09
-1.95538e-08
-3.11281e-08
-4.26942e-08
-5.21526e-08
-5.75998e-08
-5.78692e-08
-5.2881e-08
-4.36717e-08
-3.20911e-08
-2.0275e-08
-1.00791e-08
-2.66165e-09
1.66998e-09
3.34009e-09
3.20192e-09
2.1889e-09
1.04373e-09
1.91807e-10
-2.44206e-10
-3.4158e-10
-2.54117e-10
-1.19341e-10
-1.6397e-11
3.28879e-11
4.09906e-11
3.00565e-11
1.68234e-11
8.51236e-12
5.43655e-12
5.25878e-12
5.8705e-12
6.29854e-12
6.41486e-12
6.38591e-12
6.3464e-12
6.33362e-12
6.33603e-12
6.33955e-12
6.34039e-12
6.34e-12
6.33972e-12
6.33972e-12
6.33977e-12
6.33978e-12
6.33977e-12
6.33977e-12
6.33977e-12
6.33977e-12
6.33977e-12
6.33977e-12
6.33977e-12
6.33977e-12
6.33977e-12
4.94789e-22
1.62442e-19
3.11185e-19
2.70871e-20
-1.27481e-18
-3.12785e-18
-2.06788e-18
8.00191e-18
2.73941e-17
3.30252e-17
-2.95777e-17
-1.98903e-16
-3.61178e-16
-1.12439e-16
1.07242e-15
2.97949e-15
3.28718e-15
-2.65276e-15
-1.78234e-14
-3.38271e-14
-2.15443e-14
5.99214e-14
2.14844e-13
3.28456e-13
1.2191e-13
-7.15444e-13
-2.10526e-12
-2.99691e-12
-1.17506e-12
5.67201e-12
1.71054e-11
2.62449e-11
1.83681e-11
-2.37275e-11
-1.04982e-10
-1.97716e-10
-2.28372e-10
-8.95807e-11
3.09583e-10
9.61704e-10
1.6808e-09
2.07486e-09
1.61328e-09
-2.09482e-10
-3.66955e-09
-8.66225e-09
-1.46879e-08
-2.09952e-08
-2.68171e-08
-3.15808e-08
-3.49886e-08
-3.69448e-08
-3.74058e-08
-3.62742e-08
-3.34257e-08
-2.88598e-08
-2.28734e-08
-1.61267e-08
-9.52995e-09
-3.98672e-09
-1.12814e-10
1.93374e-09
2.44059e-09
1.97006e-09
1.12448e-09
3.55368e-10
-1.18854e-10
-2.85589e-10
-2.48173e-10
-1.31731e-10
-2.40984e-11
3.94745e-11
6.19584e-11
6.14782e-11
5.44041e-11
4.90634e-11
4.70534e-11
4.70232e-11
4.748e-11
4.77529e-11
4.77993e-11
4.77636e-11
4.77372e-11
4.7733e-11
4.77368e-11
4.77389e-11
4.77389e-11
4.77385e-11
4.77384e-11
4.77385e-11
4.77385e-11
4.77385e-11
4.77385e-11
4.77385e-11
4.77385e-11
4.77385e-11
4.77385e-11
4.77385e-11
4.77385e-11
4.77385e-11
8.33331e-20
2.54091e-19
6.96062e-20
-9.30935e-19
-2.49942e-18
-1.95005e-18
5.86898e-18
2.19801e-17
2.82282e-17
-2.13129e-17
-1.6262e-16
-3.04186e-16
-9.96004e-17
9.15834e-16
2.56235e-15
2.76572e-15
-2.65276e-15
-1.62313e-14
-2.96922e-14
-1.53659e-14
6.38948e-14
2.05417e-13
2.85801e-13
2.68039e-14
-8.42735e-13
-2.1236e-12
-2.56241e-12
1.76963e-13
7.99761e-12
1.89055e-11
2.31953e-11
3.68901e-12
-5.43786e-11
-1.4211e-10
-2.03203e-10
-1.30004e-10
1.93097e-10
7.87548e-10
1.45078e-09
1.68257e-09
7.78231e-10
-1.84236e-09
-6.12293e-09
-1.08905e-08
-1.37253e-08
-1.14444e-08
-1.21762e-09
1.80249e-08
4.45098e-08
7.34893e-08
9.83483e-08
1.12674e-07
1.12503e-07
9.77919e-08
7.24565e-08
4.29528e-08
1.60238e-08
-3.43156e-09
-1.35462e-08
-1.54059e-08
-1.19633e-08
-6.5756e-09
-1.81536e-09
1.06679e-09
2.02449e-09
1.70902e-09
9.13624e-10
2.07047e-10
-1.76271e-10
-2.58514e-10
-1.73501e-10
-4.94693e-11
4.29398e-11
8.83626e-11
1.00655e-10
9.86794e-11
9.44871e-11
9.22611e-11
9.18492e-11
9.20936e-11
9.23069e-11
9.23605e-11
9.2342e-11
9.23237e-11
9.23202e-11
9.23224e-11
9.23238e-11
9.23238e-11
9.23236e-11
9.23235e-11
9.23235e-11
9.23236e-11
9.23236e-11
9.23236e-11
9.23236e-11
9.23236e-11
9.23236e-11
9.23236e-11
9.23236e-11
9.23236e-11
1.97771e-19
4.2832e-20
-9.16731e-19
-2.32364e-18
-1.5471e-18
6.22141e-18
2.12614e-17
2.47913e-17
-2.7782e-17
-1.66124e-16
-2.86722e-16
-3.61303e-17
1.01981e-15
2.58784e-15
2.40696e-15
-3.7526e-15
-1.78234e-14
-2.96922e-14
-9.09444e-15
8.10979e-14
2.28509e-13
2.84089e-13
-6.33881e-14
-1.08177e-12
-2.44946e-12
-2.6038e-12
1.19348e-12
1.08892e-11
2.33233e-11
2.56299e-11
-3.99448e-12
-8.28279e-11
-1.94949e-10
-2.58843e-10
-1.2178e-10
3.78549e-10
1.26322e-09
2.20841e-09
2.40839e-09
6.84658e-10
-4.00908e-09
-1.16981e-08
-2.03894e-08
-2.54874e-08
-2.01953e-08
2.78868e-09
4.85328e-08
1.1698e-07
2.01167e-07
2.87644e-07
3.59428e-07
4.00736e-07
4.01876e-07
3.62419e-07
2.91379e-07
2.04316e-07
1.18516e-07
4.808e-08
6.77817e-10
-2.31592e-08
-2.83979e-08
-2.25739e-08
-1.28867e-08
-4.30939e-09
9.45277e-10
2.86984e-09
2.61121e-09
1.49378e-09
4.41773e-10
-1.6191e-10
-3.32835e-10
-2.56413e-10
-1.12784e-10
-2.02538e-12
5.21251e-11
6.59716e-11
6.29001e-11
5.76593e-11
5.50797e-11
5.4717e-11
5.50675e-11
5.53205e-11
5.53683e-11
5.53386e-11
5.53172e-11
5.53151e-11
5.53184e-11
5.53198e-11
5.53196e-11
5.53193e-11
5.53193e-11
5.53193e-11
5.53193e-11
5.53193e-11
5.53193e-11
5.53193e-11
5.53193e-11
5.53193e-11
5.53193e-11
5.53193e-11
1.85178e-19
-7.82776e-19
-2.44869e-18
-2.34912e-18
4.98209e-18
2.17716e-17
3.07728e-17
-1.67854e-17
-1.6517e-16
-3.26228e-16
-1.25601e-16
9.70576e-16
2.80598e-15
3.06059e-15
-3.09429e-15
-1.86664e-14
-3.38271e-14
-1.53658e-14
8.1098e-14
2.4936e-13
3.30836e-13
-2.54568e-14
-1.14473e-12
-2.71171e-12
-3.00986e-12
1.05407e-12
1.17754e-11
2.57914e-11
2.88635e-11
-3.31108e-12
-9.00771e-11
-2.14004e-10
-2.85418e-10
-1.37038e-10
4.07841e-10
1.37204e-09
2.40755e-09
2.65203e-09
8.42847e-10
-4.16408e-09
-1.24857e-08
-2.21801e-08
-2.8578e-08
-2.45099e-08
-1.73202e-09
4.66054e-08
1.23118e-07
2.23976e-07
3.38285e-07
4.49558e-07
5.39117e-07
5.90524e-07
5.93789e-07
5.48036e-07
4.61811e-07
3.50882e-07
2.34218e-07
1.29347e-07
4.85276e-08
-3.23255e-09
-2.79003e-08
-3.23004e-08
-2.51242e-08
-1.41795e-08
-4.69259e-09
1.07831e-09
3.19336e-09
2.91487e-09
1.68156e-09
4.99545e-10
-2.08447e-10
-4.50894e-10
-4.21474e-10
-3.09844e-10
-2.21185e-10
-1.80927e-10
-1.73946e-10
-1.78963e-10
-1.83781e-10
-1.85497e-10
-1.85382e-10
-1.84956e-10
-1.84777e-10
-1.84785e-10
-1.84825e-10
-1.84838e-10
-1.84835e-10
-1.84831e-10
-1.84831e-10
-1.84831e-10
-1.84832e-10
-1.84832e-10
-1.84831e-10
-1.84831e-10
-1.84831e-10
-1.84831e-10
-1.84831e-10
-1.84831e-10
-1.84831e-10
-1.84831e-10
-2.29918e-19
-2.06094e-18
-2.82303e-18
2.267e-18
1.74957e-17
3.17563e-17
2.01227e-18
-1.26171e-16
-3.07654e-16
-2.25778e-16
6.77008e-16
2.49083e-15
3.34884e-15
-1.396e-15
-1.57734e-14
-3.26604e-14
-2.15443e-14
6.38948e-14
2.28509e-13
3.30836e-13
2.74099e-14
-1.02842e-12
-2.57035e-12
-2.92379e-12
9.90857e-13
1.13943e-11
2.45959e-11
2.58521e-11
-8.72453e-12
-9.46985e-11
-2.05508e-10
-2.40676e-10
-3.62699e-11
5.39342e-10
1.40164e-09
2.06125e-09
1.60375e-09
-9.76321e-10
-6.04236e-09
-1.24255e-08
-1.69122e-08
-1.47116e-08
-1.15883e-09
2.57946e-08
6.34762e-08
1.04169e-07
1.37351e-07
1.53956e-07
1.50775e-07
1.32627e-07
1.10752e-07
9.78235e-08
1.0187e-07
1.22218e-07
1.49611e-07
1.70512e-07
1.73375e-07
1.5373e-07
1.15714e-07
6.96472e-08
2.72693e-08
-2.87243e-09
-1.78474e-08
-1.9986e-08
-1.45596e-08
-7.00776e-09
-1.01259e-09
2.05766e-09
2.59586e-09
1.75624e-09
6.13925e-10
-2.30608e-10
-6.42312e-10
-7.44514e-10
-7.12076e-10
-6.61273e-10
-6.34083e-10
-6.28603e-10
-6.31579e-10
-6.34506e-10
-6.35407e-10
-6.35226e-10
-6.34954e-10
-6.34876e-10
-6.34899e-10
-6.34923e-10
-6.34927e-10
-6.34923e-10
-6.34922e-10
-6.34922e-10
-6.34922e-10
-6.34922e-10
-6.34922e-10
-6.34922e-10
-6.34922e-10
-6.34922e-10
-6.34922e-10
-6.34922e-10
-6.34922e-10
-6.34922e-10
-1.17287e-18
-2.39833e-18
1.28666e-18
1.32969e-17
2.58722e-17
4.70053e-18
-9.72548e-17
-2.50013e-16
-1.97342e-16
5.3524e-16
2.0561e-15
2.81296e-15
-1.19475e-15
-1.35228e-14
-2.79184e-14
-1.7184e-14
5.99214e-14
2.05417e-13
2.84089e-13
-2.54566e-14
-1.02842e-12
-2.40113e-12
-2.42464e-12
1.9025e-12
1.23413e-11
2.40301e-11
2.04794e-11
-2.27751e-11
-1.1634e-10
-2.17538e-10
-1.98504e-10
1.25437e-10
8.53624e-10
1.75179e-09
2.03413e-09
4.47193e-10
-4.06426e-09
-1.10816e-08
-1.73246e-08
-1.62189e-08
3.47587e-10
3.75092e-08
9.11357e-08
1.426e-07
1.58415e-07
9.75677e-08
-7.37738e-08
-3.64783e-07
-7.47375e-07
-1.15587e-06
-1.50201e-06
-1.70147e-06
-1.70225e-06
-1.50316e-06
-1.15449e-06
-7.40477e-07
-3.51041e-07
-5.43899e-08
1.19236e-07
1.78218e-07
1.57213e-07
9.91423e-08
3.95584e-08
-1.52437e-09
-1.96267e-08
-2.04137e-08
-1.29363e-08
-4.63122e-09
7.19582e-10
2.586e-09
2.16492e-09
9.29114e-10
-1.59311e-10
-7.73129e-10
-9.87075e-10
-9.9737e-10
-9.54896e-10
-9.25167e-10
-9.16459e-10
-9.17855e-10
-9.20402e-10
-9.21372e-10
-9.21307e-10
-9.21089e-10
-9.21016e-10
-9.21031e-10
-9.2105e-10
-9.21053e-10
-9.2105e-10
-9.21049e-10
-9.21049e-10
-9.21049e-10
-9.21049e-10
-9.21049e-10
-9.21049e-10
-9.21049e-10
-9.21049e-10
-9.21049e-10
-9.21049e-10
-9.21049e-10
-2.06158e-18
9.81083e-19
1.23116e-17
2.45018e-17
4.92537e-18
-9.25063e-17
-2.40147e-16
-1.8814e-16
5.31638e-16
2.02472e-15
2.72949e-15
-1.38122e-15
-1.38279e-14
-2.79744e-14
-1.55957e-14
6.54979e-14
2.14844e-13
2.858e-13
-6.33881e-14
-1.14473e-12
-2.57035e-12
-2.42464e-12
2.56946e-12
1.41761e-11
2.65633e-11
2.0708e-11
-3.11602e-11
-1.3989e-10
-2.5284e-10
-2.15668e-10
1.94141e-10
1.09435e-09
2.18775e-09
2.47415e-09
3.24896e-10
-5.69459e-09
-1.51416e-08
-2.36942e-08
-2.21862e-08
1.52114e-09
5.65828e-08
1.3972e-07
2.25516e-07
2.61865e-07
1.75999e-07
-1.06574e-07
-6.33619e-07
-1.3976e-06
-2.31946e-06
-3.25496e-06
-4.02598e-06
-4.46883e-06
-4.48334e-06
-4.06454e-06
-3.30469e-06
-2.36462e-06
-1.42541e-06
-6.38415e-07
-9.07335e-08
2.04264e-07
2.92476e-07
2.50332e-07
1.54711e-07
6.193e-08
1.60801e-10
-2.65276e-08
-2.8049e-08
-1.79735e-08
-6.7658e-09
5.0806e-10
3.22985e-09
3.00327e-09
1.71704e-09
5.66904e-10
-5.6207e-11
-2.4694e-10
-2.33022e-10
-1.79054e-10
-1.48294e-10
-1.42114e-10
-1.4533e-10
-1.48266e-10
-1.48996e-10
-1.48725e-10
-1.48471e-10
-1.48429e-10
-1.48464e-10
-1.48482e-10
-1.48481e-10
-1.48477e-10
-1.48476e-10
-1.48477e-10
-1.48477e-10
-1.48477e-10
-1.48477e-10
-1.48477e-10
-1.48477e-10
-1.48477e-10
-1.48477e-10
-1.48477e-10
-1.16129e-18
1.02759e-17
2.57523e-17
1.59842e-17
-7.29718e-17
-2.40764e-16
-2.65909e-16
3.61601e-16
1.94236e-15
3.18032e-15
-8.16927e-17
-1.25759e-14
-2.98034e-14
-2.39839e-14
5.32363e-14
2.15922e-13
3.28456e-13
2.68036e-14
-1.08177e-12
-2.71171e-12
-2.92379e-12
1.9025e-12
1.41761e-11
2.84516e-11
2.47726e-11
-2.7538e-11
-1.42829e-10
-2.68293e-10
-2.40888e-10
1.78531e-10
1.12028e-09
2.27494e-09
2.59369e-09
3.84852e-10
-5.80187e-09
-1.5433e-08
-2.40156e-08
-2.23002e-08
1.62084e-09
5.63381e-08
1.38175e-07
2.22518e-07
2.60202e-07
1.83106e-07
-7.9901e-08
-5.80062e-07
-1.32605e-06
-2.26986e-06
-3.30736e-06
-4.2949e-06
-5.07806e-06
-5.52523e-06
-5.5573e-06
-5.16618e-06
-4.41743e-06
-3.43605e-06
-2.37838e-06
-1.39718e-06
-6.09051e-07
-7.34663e-08
2.11234e-07
2.94969e-07