/*--------------------------------*- C++ -*----------------------------------*\
  =========                 |
  \\      /  F ield         | OpenFOAM: The Open Source CFD Toolbox
   \\    /   O peration     | Website:  https://openfoam.org
    \\  /    A nd           | Version:  13
     \\/     M anipulation  |
\*---------------------------------------------------------------------------*/
FoamFile
{
    format      ascii;
    class       volScalarField;
    location    "8.5";
    object      T;
}
// * * * * * * * * * * * * * * * * * * * * * * * * * * * * * * * * * * * * * //

dimensions      [0 0 0 1 0 0 0];

internalField   nonuniform List<scalar> 
10000
(
7.69592e-28
-4.91724e-28
-5.23491e-27
-9.6479e-27
2.47003e-27
5.09151e-26
1.07071e-25
1.7881e-26
-4.38401e-25
-1.10426e-24
-6.78221e-25
3.14395e-24
1.02545e-23
1.10708e-23
-1.58721e-23
-8.21173e-23
-1.31414e-22
8.84467e-24
5.25424e-22
1.21671e-21
9.49675e-22
-2.17184e-21
-8.59913e-21
-1.29497e-20
-1.32201e-21
4.08185e-20
1.02688e-19
1.14064e-19
-5.41431e-20
-4.90091e-19
-1.02049e-18
-9.94663e-19
6.04769e-19
4.35583e-18
8.90118e-18
9.64006e-18
-5.79011e-19
-2.69528e-17
-6.45337e-17
-9.02921e-17
-6.30211e-17
6.13453e-17
2.97855e-16
5.94709e-16
8.10813e-16
7.30921e-16
1.26152e-16
-1.15749e-15
-3.12199e-15
-5.59313e-15
-8.26736e-15
-1.08089e-14
-1.29464e-14
-1.45202e-14
-1.54612e-14
-1.57316e-14
-1.52798e-14
-1.40514e-14
-1.20548e-14
-9.43616e-15
-6.50435e-15
-3.67425e-15
-1.34601e-15
2.21982e-16
9.84473e-16
1.09442e-15
8.17035e-16
4.20263e-16
9.18189e-17
-9.01711e-17
-1.3684e-16
-1.03386e-16
-4.66326e-17
-1.67345e-18
2.09994e-17
2.63452e-17
2.37076e-17
1.99603e-17
1.78339e-17
1.72946e-17
1.74541e-17
1.76716e-17
1.77554e-17
1.77513e-17
1.7732e-17
1.77246e-17
1.77255e-17
1.77273e-17
1.77277e-17
1.77274e-17
1.77273e-17
1.77273e-17
1.77274e-17
1.77274e-17
1.77274e-17
1.77274e-17
1.77274e-17
1.77274e-17
1.77274e-17
1.77274e-17
-4.91725e-28
-4.8152e-27
-6.36919e-27
8.45354e-27
5.04295e-26
7.81489e-26
-5.25015e-26
-4.84343e-25
-9.02435e-25
4.39941e-26
4.09802e-24
9.51478e-24
4.95561e-24
-2.85342e-23
-8.86196e-23
-9.4011e-23
1.34324e-22
6.96394e-22
1.14197e-21
5.03819e-23
-4.22343e-21
-1.03659e-20
-9.46652e-21
1.46642e-20
6.92471e-20
1.16648e-19
4.50681e-20
-2.85002e-19
-8.44824e-19
-1.13284e-18
-6.24651e-20
3.41292e-18
8.56871e-18
1.0717e-17
9.10927e-19
-2.89819e-17
-7.41341e-17
-1.02148e-16
-4.97214e-17
1.50604e-16
5.03792e-16
8.64435e-16
8.85931e-16
8.9303e-17
-1.89008e-15
-4.90912e-15
-7.93644e-15
-8.93849e-15
-5.25971e-15
5.46465e-15
2.41196e-14
4.9155e-14
7.64097e-14
1.00004e-13
1.1411e-13
1.14944e-13
1.02159e-13
7.89986e-14
5.11523e-14
2.47942e-14
4.6472e-15
-7.18177e-15
-1.12607e-14
-9.96523e-15
-6.2167e-15
-2.40099e-15
1.75429e-16
1.25711e-15
1.2493e-15
7.53321e-16
2.39666e-16
-7.05145e-17
-1.63239e-16
-1.24383e-16
-4.66334e-17
1.53184e-17
4.69185e-17
5.60064e-17
5.51239e-17
5.25367e-17
5.11558e-17
5.09159e-17
5.10708e-17
5.11937e-17
5.12184e-17
5.12052e-17
5.11956e-17
5.11947e-17
5.11962e-17
5.11967e-17
5.11966e-17
5.11965e-17
5.11965e-17
5.11965e-17
5.11965e-17
5.11965e-17
5.11965e-17
5.11965e-17
5.11965e-17
5.11965e-17
-5.23491e-27
-6.36919e-27
1.72132e-26
6.99639e-26
8.16897e-26
-1.36745e-25
-6.98229e-25
-1.01724e-24
7.42851e-25
6.25923e-24
1.15539e-23
4.34673e-25
-4.79696e-23
-1.15957e-22
-7.90451e-23
2.81278e-22
9.89422e-22
1.26928e-21
-7.76503e-22
-6.71049e-21
-1.33099e-20
-7.47997e-21
3.01777e-20
1.00208e-19
1.38516e-19
-7.47755e-21
-4.89142e-19
-1.17775e-18
-1.29666e-18
5.97064e-19
5.59118e-18
1.20265e-17
1.28384e-17
-4.08291e-18
-4.80799e-17
-1.08802e-16
-1.3709e-16
-4.25325e-17
2.67005e-16
7.90315e-16
1.30614e-15
1.29264e-15
9.61416e-18
-3.15934e-15
-8.11423e-15
-1.33791e-14
-1.57208e-14
-1.043e-14
7.52694e-15
4.16454e-14
9.18954e-14
1.53459e-13
2.16943e-13
2.70331e-13
3.0222e-13
3.05255e-13
2.78504e-13
2.27811e-13
1.63987e-13
9.95226e-14
4.50681e-14
6.91565e-15
-1.37817e-14
-2.00776e-14
-1.72437e-14
-1.06439e-14
-4.22654e-15
3.12815e-17
1.84878e-15
1.92671e-15
1.21638e-15
4.43601e-16
-4.82484e-17
-2.25672e-16
-2.05275e-16
-1.18059e-16
-4.36482e-17
-5.576e-18
4.61769e-18
2.73831e-18
-7.60896e-19
-2.42722e-18
-2.60191e-18
-2.34683e-18
-2.19234e-18
-2.17632e-18
-2.19981e-18
-2.21116e-18
-2.21046e-18
-2.20822e-18
-2.20778e-18
-2.20807e-18
-2.20819e-18
-2.20817e-18
-2.20814e-18
-2.20814e-18
-2.20815e-18
-2.20815e-18
-2.20815e-18
-2.20815e-18
-9.64791e-27
8.45353e-27
6.99639e-26
1.20013e-25
-5.3837e-26
-6.87337e-25
-1.35094e-24
-2.00462e-26
6.01433e-24
1.41547e-23
6.96377e-24
-4.43884e-23
-1.33762e-22
-1.30255e-22
2.40704e-22
1.09382e-21
1.63346e-21
-3.97892e-22
-7.21726e-21
-1.56636e-20
-1.05204e-20
3.20623e-20
1.14376e-19
1.60874e-19
-1.00356e-20
-5.70795e-19
-1.33978e-18
-1.36006e-18
1.0193e-18
6.74503e-18
1.31797e-17
1.15521e-17
-1.09822e-17
-6.01608e-17
-1.15232e-16
-1.13917e-16
3.43327e-17
3.85061e-16
8.51998e-16
1.11397e-15
6.36811e-16
-1.09859e-15
-4.16717e-15
-7.73435e-15
-9.84969e-15
-7.77504e-15
1.10511e-15
1.81009e-14
4.23456e-14
7.07869e-14
9.91885e-14
1.23705e-13
1.42201e-13
1.54564e-13
1.61857e-13
1.64888e-13
1.63153e-13
1.54909e-13
1.38391e-13
1.13421e-13
8.23813e-14
4.98845e-14
2.1251e-14
5.9315e-16
-1.05254e-14
-1.3264e-14
-1.05886e-14
-5.85825e-15
-1.62712e-15
8.91023e-16
1.67469e-15
1.35565e-15
6.59273e-16
6.71536e-17
-2.52669e-16
-3.44157e-16
-3.22006e-16
-2.77315e-16
-2.49731e-16
-2.41862e-16
-2.43398e-16
-2.46096e-16
-2.47228e-16
-2.4722e-16
-2.46982e-16
-2.46883e-16
-2.46891e-16
-2.46913e-16
-2.46919e-16
-2.46916e-16
-2.46915e-16
-2.46915e-16
-2.46915e-16
-2.46915e-16
-2.46915e-16
-2.46915e-16
-2.46915e-16
-2.46915e-16
-2.46915e-16
-2.46915e-16
2.47004e-27
5.04295e-26
8.16897e-26
-5.38371e-26
-5.17926e-25
-9.57053e-25
1.76237e-25
4.82263e-24
1.05389e-23
3.22258e-24
-3.89226e-23
-1.05985e-22
-8.39395e-23
2.4876e-22
9.3998e-22
1.21587e-21
-8.97973e-22
-6.97535e-21
-1.31584e-20
-4.6388e-21
3.87436e-20
1.10357e-19
1.23406e-19
-1.00684e-19
-6.80694e-19
-1.29459e-18
-8.02404e-19
2.41231e-18
8.5126e-18
1.28735e-17
4.22265e-18
-2.99774e-17
-8.61961e-17
-1.20601e-16
-4.09554e-17
2.4846e-16
7.26076e-16
1.09497e-15
7.2151e-16
-1.13306e-15
-4.66649e-15
-8.62946e-15
-9.71958e-15
-3.11115e-15
1.52423e-14
4.47576e-14
7.63349e-14
9.09447e-14
6.30146e-14
-3.0865e-14
-2.00329e-13
-4.31695e-13
-6.85932e-13
-9.07078e-13
-1.03932e-12
-1.04643e-12
-9.25222e-13
-7.07083e-13
-4.46676e-13
-2.02847e-13
-1.99068e-14
8.33765e-14
1.13914e-13
9.55066e-14
5.64459e-14
1.91579e-14
-4.73178e-15
-1.37372e-14
-1.24558e-14
-6.98319e-15
-1.83047e-15
1.06004e-15
1.75664e-15
1.21758e-15
3.79865e-16
-2.42744e-16
-5.41676e-16
-6.17345e-16
-6.01425e-16
-5.74347e-16
-5.6143e-16
-5.59835e-16
-5.61634e-16
-5.62817e-16
-5.62993e-16
-5.62838e-16
-5.62748e-16
-5.62745e-16
-5.62761e-16
-5.62766e-16
-5.62764e-16
-5.62763e-16
-5.62763e-16
-5.62763e-16
-5.62763e-16
-5.62763e-16
-5.62763e-16
-5.62763e-16
-5.62763e-16
-5.62763e-16
5.09151e-26
7.81489e-26
-1.36745e-25
-6.87338e-25
-9.57054e-25
9.82757e-25
6.73431e-24
1.13524e-23
-3.5464e-24
-5.87302e-23
-1.2347e-22
-3.96742e-23
4.30158e-22
1.19058e-21
1.06802e-21
-2.28154e-21
-9.74398e-21
-1.44257e-20
3.06236e-21
6.25033e-20
1.39736e-19
1.07602e-19
-2.47345e-19
-9.88441e-19
-1.54278e-18
-3.50687e-19
4.40004e-18
1.20037e-17
1.51092e-17
-1.52089e-18
-5.18653e-17
-1.24129e-16
-1.499e-16
9.44759e-20
4.44113e-16
1.11401e-15
1.5352e-15
7.53788e-16
-2.30626e-15
-7.86592e-15
-1.38841e-14
-1.50095e-14
-3.17654e-15
2.89765e-14
8.17601e-14
1.40976e-13
1.73106e-13
1.2756e-13
-5.13235e-14
-4.03893e-13
-9.32755e-13
-1.58788e-12
-2.26807e-12
-2.84208e-12
-3.18462e-12
-3.21493e-12
-2.92335e-12
-2.37514e-12
-1.68971e-12
-1.00363e-12
-4.31454e-13
-3.84864e-14
1.66588e-13
2.20143e-13
1.80924e-13
1.06693e-13
3.84398e-14
-4.67877e-15
-2.14597e-14
-2.04569e-14
-1.20965e-14
-3.86203e-15
1.0171e-15
2.5264e-15
2.06672e-15
1.04198e-15
2.41296e-16
-1.43952e-16
-2.3567e-16
-2.09267e-16
-1.71963e-16
-1.55638e-16
-1.54548e-16
-1.57345e-16
-1.58867e-16
-1.58971e-16
-1.58719e-16
-1.5861e-16
-1.58622e-16
-1.58645e-16
-1.58648e-16
-1.58645e-16
-1.58644e-16
-1.58644e-16
-1.58645e-16
-1.58645e-16
-1.58644e-16
-1.58644e-16
-1.58644e-16
-1.58644e-16
1.07071e-25
-5.25014e-26
-6.98228e-25
-1.35094e-24
1.76236e-25
6.73431e-24
1.48759e-23
4.07992e-24
-5.71596e-23
-1.5188e-22
-1.07479e-22
3.98668e-22
1.3924e-21
1.6258e-21
-1.85977e-21
-1.09536e-20
-1.85945e-20
-1.42083e-21
6.8003e-20
1.67474e-19
1.47488e-19
-2.58369e-19
-1.14833e-18
-1.84673e-18
-4.66656e-19
5.15433e-18
1.40013e-17
1.69767e-17
-3.87284e-18
-6.29213e-17
-1.41014e-16
-1.52829e-16
4.5678e-17
5.55873e-16
1.23087e-15
1.4708e-15
2.61368e-16
-3.27149e-15
-8.74253e-15
-1.32768e-14
-1.11705e-14
4.41452e-15
3.72758e-14
8.25677e-14
1.2244e-13
1.26154e-13
5.65722e-14
-1.18096e-13
-4.11592e-13
-8.11549e-13
-1.27992e-12
-1.76162e-12
-2.19729e-12
-2.53447e-12
-2.73404e-12
-2.7721e-12
-2.64064e-12
-2.34959e-12
-1.92966e-12
-1.43258e-12
-9.24747e-13
-4.73648e-13
-1.31193e-13
7.92502e-14
1.66247e-13
1.62838e-13
1.1206e-13
5.20906e-14
6.80463e-15
-1.59538e-14
-1.99804e-14
-1.39284e-14
-5.68342e-15
3.2927e-16
3.09768e-15
3.55557e-15
3.05326e-15
2.49921e-15
2.21182e-15
2.14947e-15
2.17749e-15
2.20834e-15
2.21913e-15
2.21801e-15
2.21526e-15
2.21431e-15
2.21448e-15
2.21473e-15
2.21477e-15
2.21474e-15
2.21472e-15
2.21472e-15
2.21473e-15
2.21473e-15
2.21473e-15
2.21473e-15
2.21473e-15
2.21473e-15
2.21473e-15
2.21473e-15
1.7881e-26
-4.84343e-25
-1.01724e-24
-2.00458e-26
4.82263e-24
1.13524e-23
4.07991e-24
-4.25801e-23
-1.18323e-22
-8.78728e-23
3.13734e-22
1.12001e-21
1.30302e-21
-1.63223e-21
-9.26237e-21
-1.52984e-20
8.85117e-22
6.26039e-20
1.45664e-19
1.07708e-19
-2.91517e-19
-1.0967e-18
-1.56562e-18
1.72287e-19
5.92813e-18
1.36718e-17
1.27957e-17
-1.47744e-17
-7.76629e-17
-1.40377e-16
-9.4817e-17
2.04929e-16
7.85698e-16
1.29958e-15
8.69282e-16
-1.59737e-15
-6.32482e-15
-1.10496e-14
-1.00233e-14
4.45277e-15
3.64856e-14
7.79381e-14
1.01393e-13
6.24822e-14
-8.17673e-14
-3.39216e-13
-6.45977e-13
-8.49231e-13
-7.31545e-13
-8.34856e-14
1.19497e-12
3.00769e-12
5.03948e-12
6.82471e-12
7.89355e-12
7.94023e-12
6.94028e-12
5.16281e-12
3.07101e-12
1.1559e-12
-2.24124e-13
-9.336e-13
-1.05436e-12
-8.03643e-13
-4.24659e-13
-9.93394e-14
8.87635e-14
1.42616e-13
1.12417e-13
5.48284e-14
7.82967e-15
-1.51121e-14
-1.78479e-14
-1.06213e-14
-2.09205e-15
3.59633e-15
6.03657e-15
6.48315e-15
6.22738e-15
5.9631e-15
5.86012e-15
5.85834e-15
5.87855e-15
5.88857e-15
5.88902e-15
5.88728e-15
5.88655e-15
5.88662e-15
5.88678e-15
5.88681e-15
5.88679e-15
5.88678e-15
5.88678e-15
5.88678e-15
5.88678e-15
5.88678e-15
5.88678e-15
5.88678e-15
5.88678e-15
5.88678e-15
-4.38402e-25
-9.02435e-25
7.42851e-25
6.01433e-24
1.05389e-23
-3.5464e-24
-5.71596e-23
-1.18323e-22
-2.14676e-23
4.75028e-22
1.21903e-21
8.41704e-22
-3.18687e-21
-1.11266e-20
-1.34054e-20
1.32194e-20
8.5494e-20
1.53347e-19
3.68966e-20
-4.98419e-19
-1.34584e-18
-1.41511e-18
1.47636e-18
8.68754e-18
1.60041e-17
8.96264e-18
-3.27734e-17
-1.10801e-16
-1.64826e-16
-4.71201e-17
4.09963e-16
1.16598e-15
1.63784e-15
5.55104e-16
-3.48062e-15
-1.03399e-14
-1.60005e-14
-1.1237e-14
1.56977e-14
6.99557e-14
1.35587e-13
1.62863e-13
7.05159e-14
-2.23676e-13
-7.40342e-13
-1.36007e-12
-1.76671e-12
-1.45988e-12
1.31104e-13
3.44096e-12
8.53291e-12
1.49345e-11
2.16414e-11
2.73283e-11
3.07204e-11
3.09958e-11
2.80625e-11
2.25957e-11
1.5818e-11
9.11039e-12
3.60847e-12
-6.92376e-14
-1.88266e-12
-2.2362e-12
-1.73765e-12
-9.60649e-13
-2.93193e-13
1.01026e-13
2.32802e-13
1.99727e-13
1.07688e-13
2.6907e-14
-1.63726e-14
-2.63435e-14
-1.87549e-14
-7.4838e-15
4.7672e-16
4.00064e-15
4.68724e-15
4.34731e-15
3.9808e-15
3.83862e-15
3.83767e-15
3.86613e-15
3.87951e-15
3.87967e-15
3.87718e-15
3.87627e-15
3.87644e-15
3.87665e-15
3.87667e-15
3.87664e-15
3.87663e-15
3.87664e-15
3.87664e-15
3.87664e-15
3.87664e-15
3.87664e-15
3.87664e-15
3.87664e-15
-1.10426e-24
4.3993e-26
6.25923e-24
1.41547e-23
3.22259e-24
-5.87302e-23
-1.5188e-22
-8.78728e-23
4.75028e-22
1.50237e-21
1.46303e-21
-2.99697e-21
-1.32474e-20
-1.88417e-20
9.63624e-21
9.88145e-20
1.96628e-19
8.24286e-20
-5.58694e-19
-1.64725e-18
-1.86978e-18
1.53132e-18
1.04002e-17
1.96595e-17
1.13992e-17
-3.94121e-17
-1.33729e-16
-1.95461e-16
-4.46168e-17
5.09835e-16
1.38537e-15
1.8425e-15
3.88547e-16
-4.43617e-15
-1.20579e-14
-1.73516e-14
-9.83248e-15
2.22972e-14
8.14246e-14
1.4576e-13
1.59475e-13
4.08463e-14
-2.81459e-13
-8.06321e-13
-1.393e-12
-1.72389e-12
-1.33167e-12
2.95652e-13
3.55195e-12
8.5443e-12
1.49815e-11
2.2167e-11
2.91086e-11
3.47166e-11
3.80399e-11
3.84789e-11
3.59252e-11
3.07959e-11
2.39487e-11
1.64931e-11
9.54007e-12
3.95598e-12
1.94169e-13
-1.7477e-12
-2.2382e-12
-1.8339e-12
-1.08457e-12
-3.90074e-13
5.43308e-14
2.29935e-13
2.19696e-13
1.30116e-13
4.00621e-14
-1.52914e-14
-3.49794e-14
-3.34815e-14
-2.54832e-14
-1.91565e-14
-1.64168e-14
-1.60547e-14
-1.6464e-14
-1.67906e-14
-1.68816e-14
-1.68587e-14
-1.68292e-14
-1.68212e-14
-1.68238e-14
-1.68263e-14
-1.68266e-14
-1.68262e-14
-1.68261e-14
-1.68261e-14
-1.68261e-14
-1.68261e-14
-1.68261e-14
-1.68261e-14
-1.68261e-14
-1.68261e-14
-1.68261e-14
-1.68261e-14
-6.78221e-25
4.09802e-24
1.15539e-23
6.96377e-24
-3.89226e-23
-1.2347e-22
-1.07479e-22
3.13734e-22
1.21903e-21
1.46303e-21
-1.90449e-21
-1.07911e-20
-1.73154e-20
4.33945e-21
8.16297e-20
1.75486e-19
8.96387e-20
-4.7724e-19
-1.48075e-18
-1.70763e-18
1.47217e-18
9.79712e-18
1.80884e-17
8.45898e-18
-4.29097e-17
-1.31981e-16
-1.72522e-16
2.15001e-17
6.11662e-16
1.40606e-15
1.48333e-15
-7.20212e-16
-6.18845e-15
-1.28537e-14
-1.33191e-14
3.90014e-15
4.60677e-14
1.01084e-13
1.23892e-13
4.11066e-14
-2.09697e-13
-6.0639e-13
-9.66912e-13
-9.35177e-13
-9.20987e-14
1.79522e-12
4.46729e-12
6.97994e-12
7.81174e-12
5.35221e-12
-1.3511e-12
-1.19072e-11
-2.43415e-11
-3.55355e-11
-4.2263e-11
-4.24124e-11
-3.58443e-11
-2.44712e-11
-1.1514e-11
-2.82458e-13
6.96574e-12
9.61318e-12
8.54986e-12
5.50132e-12
2.20652e-12
-1.81657e-13
-1.2893e-12
-1.35222e-12
-8.74758e-13
-3.19808e-13
5.2382e-14
1.89865e-13
1.64804e-13
7.77574e-14
-1.22497e-15
-4.63498e-14
-6.19393e-14
-6.23093e-14
-5.88495e-14
-5.65341e-14
-5.59122e-14
-5.60641e-14
-5.62734e-14
-5.63426e-14
-5.63313e-14
-5.63131e-14
-5.63085e-14
-5.63104e-14
-5.63118e-14
-5.63119e-14
-5.63116e-14
-5.63116e-14
-5.63116e-14
-5.63116e-14
-5.63116e-14
-5.63116e-14
-5.63116e-14
-5.63116e-14
-5.63116e-14
-5.63116e-14
3.14395e-24
9.51479e-24
4.34678e-25
-4.43884e-23
-1.05985e-22
-3.96743e-23
3.98668e-22
1.12001e-21
8.41704e-22
-2.99697e-21
-1.07911e-20
-1.26356e-20
1.59855e-20
9.12015e-20
1.51511e-19
-9.77932e-21
-6.32652e-19
-1.48114e-18
-1.09814e-18
3.03931e-18
1.15005e-17
1.65516e-17
-1.94088e-18
-6.43851e-17
-1.50116e-16
-1.42239e-16
1.66644e-16
8.88709e-16
1.633e-15
1.12844e-15
-2.44161e-15
-9.59071e-15
-1.62399e-14
-1.12686e-14
2.0275e-14
8.34677e-14
1.50507e-13
1.42431e-13
-5.69292e-14
-5.26867e-13
-1.17525e-12
-1.60051e-12
-1.06981e-12
1.24847e-12
5.7368e-12
1.15844e-11
1.61847e-11
1.51342e-11
3.18061e-12
-2.39097e-11
-6.71236e-11
-1.22564e-10
-1.81358e-10
-2.31536e-10
-2.61473e-10
-2.63663e-10
-2.37326e-10
-1.88736e-10
-1.29112e-10
-7.09551e-11
-2.42971e-11
5.72141e-12
1.9259e-11
2.0377e-11
1.47294e-11
7.39561e-12
1.59768e-12
-1.51283e-12
-2.28732e-12
-1.73292e-12
-8.14755e-13
-1.09312e-13
2.1629e-13
2.48095e-13
1.4655e-13
3.40835e-14
-3.67363e-14
-6.46428e-14
-6.8219e-14
-6.43245e-14
-6.11132e-14
-6.00743e-14
-6.01771e-14
-6.04375e-14
-6.05369e-14
-6.05286e-14
-6.05066e-14
-6.05004e-14
-6.05025e-14
-6.05041e-14
-6.05042e-14
-6.05039e-14
-6.05039e-14
-6.05039e-14
-6.05039e-14
-6.05039e-14
-6.05039e-14
-6.05039e-14
-6.05039e-14
-6.05039e-14
1.02545e-23
4.95563e-24
-4.79696e-23
-1.33762e-22
-8.39396e-23
4.30158e-22
1.3924e-21
1.30302e-21
-3.18687e-21
-1.32474e-20
-1.73154e-20
1.59855e-20
1.10977e-19
1.96336e-19
1.10527e-20
-7.66287e-19
-1.87042e-18
-1.47018e-18
3.68125e-18
1.43996e-17
2.09006e-17
-2.41855e-18
-8.11711e-17
-1.8788e-16
-1.72985e-16
2.22638e-16
1.12446e-15
2.01091e-15
1.27382e-15
-3.28288e-15
-1.20627e-14
-1.9668e-14
-1.22742e-14
2.77286e-14
1.04502e-13
1.81503e-13
1.62035e-13
-9.01565e-14
-6.60306e-13
-1.42625e-12
-1.90484e-12
-1.23489e-12
1.55604e-12
6.93928e-12
1.40506e-11
1.99726e-11
1.95948e-11
6.42293e-12
-2.56168e-11
-7.97949e-11
-1.54428e-10
-2.41879e-10
-3.29351e-10
-4.01513e-10
-4.44318e-10
-4.48825e-10
-4.13783e-10
-3.46072e-10
-2.58815e-10
-1.67791e-10
-8.73392e-11
-2.70735e-11
9.63988e-12
2.51889e-11
2.56859e-11
1.83451e-11
9.24725e-12
2.12367e-12
-1.73282e-12
-2.76105e-12
-2.15429e-12
-1.06149e-12
-1.83542e-13
2.59424e-13
3.52295e-13
2.76426e-13
1.74577e-13
1.10119e-13
8.70842e-14
8.65423e-14
9.15182e-14
9.4615e-14
9.52532e-14
9.49289e-14
9.46461e-14
9.45892e-14
9.4622e-14
9.46445e-14
9.46456e-14
9.46418e-14
9.46407e-14
9.46411e-14
9.46414e-14
9.46413e-14
9.46413e-14
9.46413e-14
9.46413e-14
9.46413e-14
9.46413e-14
9.46413e-14
1.10708e-23
-2.85342e-23
-1.15957e-22
-1.30255e-22
2.4876e-22
1.19058e-21
1.6258e-21
-1.63222e-21
-1.11266e-20
-1.88417e-20
4.33944e-21
9.12015e-20
1.96336e-19
8.26867e-20
-6.10684e-19
-1.7786e-18
-1.78511e-18
2.72361e-18
1.33433e-17
2.14473e-17
1.45706e-18
-7.49944e-17
-1.84527e-16
-1.76841e-16
2.1632e-16
1.12185e-15
1.9734e-15
1.06835e-15
-3.77778e-15
-1.24864e-14
-1.84706e-14
-6.8131e-15
3.83254e-14
1.1259e-13
1.63939e-13
8.48015e-14
-2.38976e-13
-8.03982e-13
-1.33256e-12
-1.20807e-12
3.34566e-13
3.68149e-12
8.11961e-12
1.13432e-11
9.73018e-12
-3.03135e-13
-2.01643e-11
-4.71683e-11
-7.41603e-11
-9.15304e-11
-9.12526e-11
-7.12156e-11
-3.74771e-11
-2.77102e-12
1.85462e-11
1.68945e-11
-7.97329e-12
-4.66598e-11
-8.42838e-11
-1.07004e-10
-1.0766e-10
-8.79308e-11
-5.64192e-11
-2.41046e-11
3.1037e-13
1.30735e-11
1.53605e-11
1.12761e-11
5.32344e-12
6.01898e-13
-1.74498e-12
-2.06489e-12
-1.32844e-12
-4.10572e-13
2.28656e-13
5.13662e-13
5.65322e-13
5.28233e-13
4.88595e-13
4.71247e-13
4.69745e-13
4.72769e-13
4.747e-13
4.75009e-13
4.74752e-13
4.74583e-13
4.7457e-13
4.74597e-13
4.74608e-13
4.74606e-13
4.74604e-13
4.74604e-13
4.74604e-13
4.74604e-13
4.74604e-13
4.74604e-13
4.74604e-13
4.74604e-13
4.74604e-13
4.74604e-13
-1.58721e-23
-8.86197e-23
-7.90451e-23
2.40704e-22
9.3998e-22
1.06802e-21
-1.85977e-21
-9.26237e-21
-1.34054e-20
9.63624e-21
8.16298e-20
1.51511e-19
1.10528e-20
-6.10684e-19
-1.49926e-18
-1.08297e-18
3.43902e-18
1.25176e-17
1.66105e-17
-8.13075e-18
-8.23078e-17
-1.68239e-16
-1.05374e-16
3.5031e-16
1.22227e-15
1.7499e-15
7.67265e-17
-5.69721e-15
-1.4167e-14
-1.61646e-14
5.55321e-15
6.42334e-14
1.40878e-13
1.53287e-13
-3.8558e-14
-5.39824e-13
-1.22591e-12
-1.53342e-12
-4.59562e-13
2.95361e-12
8.54467e-12
1.37207e-11
1.28457e-11
-1.43128e-12
-3.4134e-11
-8.1855e-11
-1.27161e-10
-1.37374e-10
-7.10214e-11
1.07758e-10
4.10987e-10
8.12624e-10
1.2465e-09
1.62052e-09
1.84397e-09
1.85814e-09
1.65743e-09
1.29188e-09
8.49706e-10
4.27409e-10
9.99339e-11
-9.77368e-11
-1.7222e-10
-1.59048e-10
-1.03482e-10
-4.36025e-11
-1.29213e-12
1.7988e-11
1.96039e-11
1.26405e-11
4.63744e-12
-5.59182e-13
-2.39054e-12
-2.02543e-12
-8.94035e-13
8.7818e-14
6.24569e-13
7.99564e-13
7.9983e-13
7.61091e-13
7.37273e-13
7.31794e-13
7.33751e-13
7.35802e-13
7.36347e-13
7.36181e-13
7.36015e-13
7.35989e-13
7.36011e-13
7.36021e-13
7.3602e-13
7.36018e-13
7.36018e-13
7.36018e-13
7.36018e-13
7.36018e-13
7.36018e-13
7.36018e-13
7.36018e-13
7.36018e-13
-8.21173e-23
-9.40111e-23
2.81278e-22
1.09382e-21
1.21587e-21
-2.28154e-21
-1.09536e-20
-1.52984e-20
1.32194e-20
9.88145e-20
1.75486e-19
-9.77925e-21
-7.66287e-19
-1.7786e-18
-1.08297e-18
4.61634e-18
1.53491e-17
1.8649e-17
-1.45275e-17
-1.05869e-16
-2.00964e-16
-9.59725e-17
4.95441e-16
1.54531e-15
2.02616e-15
-3.796e-16
-7.79219e-15
-1.7847e-14
-1.83828e-14
1.2068e-14
8.78787e-14
1.80266e-13
1.80032e-13
-9.07891e-14
-7.55037e-13
-1.62812e-12
-1.95167e-12
-3.97397e-13
4.30094e-12
1.19315e-11
1.90131e-11
1.7798e-11
-2.2726e-12
-4.94033e-11
-1.20913e-10
-1.94145e-10
-2.21754e-10
-1.36562e-10
1.3152e-10
6.29216e-10
1.3527e-09
2.23113e-09
3.13091e-09
3.88351e-09
4.33042e-09
4.37025e-09
3.99084e-09
3.27382e-09
2.36979e-09
1.45324e-09
6.74091e-10
1.2253e-10
-1.82594e-10
-2.81793e-10
-2.47952e-10
-1.5676e-10
-6.51506e-11
-2.70956e-12
2.51809e-11
2.76633e-11
1.80841e-11
7.00647e-12
-3.23767e-13
-3.15934e-12
-3.048e-12
-1.86359e-12
-7.96426e-13
-2.31266e-13
-7.09818e-14
-9.31535e-14
-1.43689e-13
-1.68884e-13
-1.7201e-13
-1.68381e-13
-1.6605e-13
-1.65766e-13
-1.66105e-13
-1.66279e-13
-1.66272e-13
-1.66239e-13
-1.66232e-13
-1.66236e-13
-1.66238e-13
-1.66238e-13
-1.66237e-13
-1.66237e-13
-1.66237e-13
-1.66237e-13
-1.66237e-13
-1.66237e-13
-1.31414e-22
1.34324e-22
9.89422e-22
1.63346e-21
-8.97973e-22
-9.74398e-21
-1.85945e-20
8.85111e-22
8.5494e-20
1.96628e-19
8.96388e-20
-6.32652e-19
-1.87042e-18
-1.78511e-18
3.43902e-18
1.53491e-17
2.2794e-17
-5.72211e-18
-1.01189e-16
-2.19891e-16
-1.4985e-16
4.44064e-16
1.6032e-15
2.28727e-15
-4.62261e-17
-7.89109e-15
-1.89087e-14
-1.98975e-14
1.25592e-14
9.32251e-14
1.87881e-13
1.75226e-13
-1.30009e-13
-8.26683e-13
-1.65305e-12
-1.75139e-12
1.9703e-13
5.13698e-12
1.21282e-11
1.68755e-11
1.16875e-11
-1.17322e-11
-5.64009e-11
-1.12942e-10
-1.55102e-10
-1.42023e-10
-2.89734e-11
2.16295e-10
5.98419e-10
1.08821e-09
1.62921e-09
2.15417e-09
2.60322e-09
2.93488e-09
3.1261e-09
3.16501e-09
3.0446e-09
2.76396e-09
2.33707e-09
1.80244e-09
1.22425e-09
6.80696e-10
2.42691e-10
-4.71818e-11
-1.85406e-10
-2.03307e-10
-1.5096e-10
-7.76131e-11
-1.72534e-11
1.61908e-11
2.49059e-11
1.89639e-11
8.68805e-12
4.71299e-13
-3.73788e-12
-4.79573e-12
-4.3742e-12
-3.71967e-12
-3.33924e-12
-3.23911e-12
-3.26536e-12
-3.30368e-12
-3.31884e-12
-3.3183e-12
-3.31491e-12
-3.31358e-12
-3.31373e-12
-3.31404e-12
-3.31411e-12
-3.31407e-12
-3.31405e-12
-3.31405e-12
-3.31405e-12
-3.31406e-12
-3.31405e-12
-3.31405e-12
-3.31405e-12
-3.31405e-12
-3.31405e-12
-3.31405e-12
8.84461e-24
6.96395e-22
1.26928e-21
-3.97892e-22
-6.97535e-21
-1.44257e-20
-1.42084e-21
6.2604e-20
1.53347e-19
8.24287e-20
-4.7724e-19
-1.48114e-18
-1.47018e-18
2.72361e-18
1.25176e-17
1.8649e-17
-5.7221e-18
-8.70367e-17
-1.85397e-16
-1.11003e-16
4.29836e-16
1.43939e-15
1.89444e-15
-5.81608e-16
-8.04183e-15
-1.73782e-14
-1.47225e-14
2.2191e-14
1.01759e-13
1.75467e-13
1.05754e-13
-2.84291e-13
-1.01101e-12
-1.61781e-12
-1.00458e-12
2.15245e-12
8.04732e-12
1.3777e-11
1.22026e-11
-6.05979e-12
-4.58106e-11
-9.68032e-11
-1.25419e-10
-7.77484e-11
9.81387e-11
4.11798e-10
7.86929e-10
1.04139e-09
9.16608e-10
1.6395e-10
-1.3353e-09
-3.46782e-09
-5.86167e-09
-7.96754e-09
-9.23116e-09
-9.29134e-09
-8.11814e-09
-6.02753e-09
-3.56488e-09
-1.30945e-09
3.14819e-10
1.14641e-09
1.28074e-09
9.74309e-10
5.15638e-10
1.21621e-10
-1.07322e-10
-1.74017e-10
-1.38305e-10
-6.84478e-11
-1.07308e-11
1.79776e-11
2.1914e-11
1.33608e-11
2.92473e-12
-4.17957e-12
-7.31532e-12
-7.9521e-12
-7.67031e-12
-7.34665e-12
-7.21302e-12
-7.2063e-12
-7.23016e-12
-7.24296e-12
-7.24394e-12
-7.24188e-12
-7.24093e-12
-7.24099e-12
-7.24118e-12
-7.24122e-12
-7.2412e-12
-7.24118e-12
-7.24119e-12
-7.24119e-12
-7.24119e-12
-7.24119e-12
-7.24119e-12
-7.24119e-12
-7.24119e-12
-7.24119e-12
5.25424e-22
1.14197e-21
-7.76502e-22
-7.21726e-21
-1.31584e-20
3.06235e-21
6.8003e-20
1.45664e-19
3.68968e-20
-5.58694e-19
-1.48075e-18
-1.09814e-18
3.68125e-18
1.33433e-17
1.66105e-17
-1.45275e-17
-1.01189e-16
-1.85397e-16
-5.30297e-17
5.80287e-16
1.60012e-15
1.72424e-15
-1.64525e-15
-1.01764e-14
-1.89929e-14
-1.10999e-14
3.75815e-14
1.29402e-13
1.94366e-13
6.00071e-14
-4.70218e-13
-1.35188e-12
-1.91149e-12
-6.79545e-13
3.96199e-12
1.18724e-11
1.84415e-11
1.31066e-11
-1.75521e-11
-7.94019e-11
-1.543e-10
-1.85855e-10
-8.22015e-11
2.49251e-10
8.31385e-10
1.52968e-09
1.9897e-09
1.6524e-09
-1.17359e-10
-3.80057e-09
-9.46288e-09
-1.65743e-08
-2.40159e-08
-3.03165e-08
-3.40645e-08
-3.43529e-08
-3.10846e-08
-2.50114e-08
-1.74898e-08
-1.00506e-08
-3.95194e-09
1.2087e-10
2.12376e-09
2.50577e-09
1.94217e-09
1.07087e-09
3.23709e-10
-1.17001e-10
-2.63568e-10
-2.25369e-10
-1.21197e-10
-2.99383e-11
1.88886e-11
3.00362e-11
2.13155e-11
8.44374e-12
-6.45791e-13
-4.67376e-12
-5.46132e-12
-5.07401e-12
-4.65486e-12
-4.49184e-12
-4.49058e-12
-4.52314e-12
-4.5385e-12
-4.5387e-12
-4.53584e-12
-4.5348e-12
-4.53499e-12
-4.53523e-12
-4.53526e-12
-4.53522e-12
-4.53521e-12
-4.53521e-12
-4.53522e-12
-4.53522e-12
-4.53522e-12
-4.53522e-12
-4.53522e-12
-4.53522e-12
1.21671e-21
5.03827e-23
-6.71049e-21
-1.56636e-20
-4.63881e-21
6.25033e-20
1.67474e-19
1.07708e-19
-4.98419e-19
-1.64725e-18
-1.70763e-18
3.03931e-18
1.43996e-17
2.14473e-17
-8.13075e-18
-1.05869e-16
-2.19891e-16
-1.11003e-16
5.80287e-16
1.81075e-15
2.18888e-15
-1.35979e-15
-1.11561e-14
-2.21517e-14
-1.48685e-14
3.95721e-14
1.46143e-13
2.2588e-13
7.90822e-14
-5.23641e-13
-1.53157e-12
-2.16651e-12
-7.49003e-13
4.51913e-12
1.33536e-11
2.03945e-11
1.38128e-11
-2.08112e-11
-8.87302e-11
-1.68504e-10
-1.98185e-10
-8.05779e-11
2.786e-10
8.98579e-10
1.63776e-09
2.13471e-09
1.82141e-09
3.56466e-11
-3.77984e-09
-9.84745e-09
-1.78765e-08
-2.70135e-08
-3.59583e-08
-4.32294e-08
-4.75088e-08
-4.79699e-08
-4.44932e-08
-3.77045e-08
-2.8824e-08
-1.93633e-08
-1.07608e-08
-4.06e-09
2.74074e-10
2.35858e-09
2.73492e-09
2.12382e-09
1.18794e-09
3.77555e-10
-1.11019e-10
-2.83499e-10
-2.51157e-10
-1.40183e-10
-3.76118e-11
2.15797e-11
4.01327e-11
3.61108e-11
2.61626e-11
1.89122e-11
1.59614e-11
1.5668e-11
1.61679e-11
1.65331e-11
1.66262e-11
1.65965e-11
1.65634e-11
1.65551e-11
1.65584e-11
1.65611e-11
1.65614e-11
1.65609e-11
1.65608e-11
1.65608e-11
1.65609e-11
1.65609e-11
1.65609e-11
1.65609e-11
1.65609e-11
1.65609e-11
1.65609e-11
1.65609e-11
9.49676e-22
-4.22343e-21
-1.33099e-20
-1.05204e-20
3.87436e-20
1.39736e-19
1.47489e-19
-2.91517e-19
-1.34584e-18
-1.86978e-18
1.47218e-18
1.15005e-17
2.09006e-17
1.45706e-18
-8.23079e-17
-2.00964e-16
-1.4985e-16
4.29836e-16
1.60012e-15
2.18888e-15
-7.27832e-16
-9.74969e-15
-2.07354e-14
-1.52867e-14
3.52514e-14
1.36887e-13
2.11713e-13
6.10189e-14
-5.34649e-13
-1.48485e-12
-1.93676e-12
-1.85301e-13
5.30479e-12
1.34036e-11
1.74335e-11
5.04435e-12
-3.51156e-11
-9.86351e-11
-1.48583e-10
-1.11864e-10
9.33238e-11
4.92577e-10
9.74167e-10
1.2439e-09
8.78062e-10
-4.96697e-10
-2.94309e-09
-6.00097e-09
-8.68132e-09
-9.7582e-09
-8.29675e-09
-4.19129e-09
1.58145e-09
7.19303e-09
1.06421e-08
1.05947e-08
6.9819e-09
1.05048e-09
-5.16603e-09
-9.6947e-09
-1.13802e-08
-1.02152e-08
-7.14975e-09
-3.54366e-09
-5.69681e-10
1.16398e-09
1.66309e-09
1.33817e-09
7.04592e-10
1.49947e-10
-1.56158e-10
-2.26181e-10
-1.601e-10
-5.91928e-11
1.75332e-11
5.54498e-11
6.51958e-11
6.27128e-11
5.85581e-11
5.6426e-11
5.60747e-11
5.63465e-11
5.65645e-11
5.66137e-11
5.65912e-11
5.65722e-11
5.65695e-11
5.65722e-11
5.65735e-11
5.65734e-11
5.65731e-11
5.65731e-11
5.65731e-11
5.65731e-11
5.65731e-11
5.65731e-11
5.65731e-11
5.65731e-11
5.65731e-11
5.65731e-11
-2.17184e-21
-1.0366e-20
-7.47999e-21
3.20623e-20
1.10357e-19
1.07602e-19
-2.58369e-19
-1.0967e-18
-1.41511e-18
1.53132e-18
9.79712e-18
1.65517e-17
-2.41853e-18
-7.49944e-17
-1.68239e-16
-9.59727e-17
4.44064e-16
1.43939e-15
1.72424e-15
-1.35979e-15
-9.74968e-15
-1.84518e-14
-9.04049e-15
4.42099e-14
1.3893e-13
1.84077e-13
-2.54128e-14
-6.77922e-13
-1.57097e-12
-1.6509e-12
9.41344e-13
7.45399e-12
1.5443e-11
1.56496e-11
-6.87915e-12
-6.21857e-11
-1.34368e-10
-1.60387e-10
-3.27958e-11
3.45206e-10
9.43906e-10
1.47115e-09
1.31732e-09
-2.90188e-10
-3.84897e-09
-8.93801e-09
-1.36451e-08
-1.44693e-08
-7.02992e-09
1.24022e-08
4.49994e-08
8.79142e-08
1.341e-07
1.73824e-07
1.97539e-07
1.99072e-07
1.77833e-07
1.39069e-07
9.20537e-08
4.69718e-08
1.17882e-08
-9.70102e-09
-1.80797e-08
-1.70183e-08
-1.12773e-08
-4.91995e-09
-3.33947e-10
1.82882e-09
2.08718e-09
1.3875e-09
5.38488e-10
-3.17722e-11
-2.46259e-10
-2.19988e-10
-1.0392e-10
1.37799e-12
6.08536e-11
8.12784e-11
8.20736e-11
7.80419e-11
7.53835e-11
7.47053e-11
7.48883e-11
7.51139e-11
7.51806e-11
7.51651e-11
7.51467e-11
7.51432e-11
7.51454e-11
7.51466e-11
7.51465e-11
7.51463e-11
7.51463e-11
7.51463e-11
7.51463e-11
7.51463e-11
7.51463e-11
7.51463e-11
7.51463e-11
7.51463e-11
-8.59913e-21
-9.46653e-21
3.01777e-20
1.14376e-19
1.23406e-19
-2.47345e-19
-1.14833e-18
-1.56563e-18
1.47636e-18
1.04002e-17
1.80884e-17
-1.94087e-18
-8.11711e-17
-1.84527e-16
-1.05374e-16
4.95441e-16
1.6032e-15
1.89444e-15
-1.64525e-15
-1.11561e-14
-2.07354e-14
-9.04049e-15
5.31704e-14
1.61244e-13
2.06137e-13
-5.23718e-14
-8.25673e-13
-1.84938e-12
-1.84486e-12
1.3952e-12
9.26475e-12
1.86122e-11
1.80085e-11
-1.07716e-11
-7.96473e-11
-1.68212e-10
-1.97074e-10
-3.00144e-11
4.58927e-10
1.23927e-09
1.94326e-09
1.77165e-09
-3.46263e-10
-5.21567e-09
-1.2507e-08
-1.98472e-08
-2.23734e-08
-1.32629e-08
1.45259e-08
6.55969e-08
1.39405e-07
2.28655e-07
3.19784e-07
3.95796e-07
4.40778e-07
4.44598e-07
4.06088e-07
3.33483e-07
2.41931e-07
1.48994e-07
6.97966e-08
1.35014e-08
-1.78884e-08
-2.83625e-08
-2.52208e-08
-1.61068e-08
-6.81959e-09
-4.17496e-10
2.49515e-09
2.80796e-09
1.86326e-09
7.39864e-10
-1.5906e-11
-3.16546e-10
-3.13528e-10
-1.96605e-10
-8.85626e-11
-3.04934e-11
-1.36415e-11
-1.56748e-11
-2.08066e-11
-2.34147e-11
-2.37585e-11
-2.33925e-11
-2.31514e-11
-2.31202e-11
-2.31547e-11
-2.31728e-11
-2.31722e-11
-2.31688e-11
-2.3168e-11
-2.31684e-11
-2.31686e-11
-2.31686e-11
-2.31686e-11
-2.31686e-11
-2.31686e-11
-2.31686e-11
-2.31686e-11
-2.31686e-11
-1.29497e-20
1.46642e-20
1.00209e-19
1.60874e-19
-1.00684e-19
-9.88442e-19
-1.84673e-18
1.72288e-19
8.68755e-18
1.96595e-17
8.45898e-18
-6.43851e-17
-1.8788e-16
-1.76841e-16
3.50311e-16
1.54531e-15
2.28727e-15
-5.81609e-16
-1.01764e-14
-2.21517e-14
-1.52867e-14
4.42099e-14
1.61245e-13
2.32647e-13
2.8806e-15
-7.84915e-13
-1.91164e-12
-2.06594e-12
1.12859e-12
9.27166e-12
1.91334e-11
1.86424e-11
-1.12306e-11
-8.18346e-11
-1.69079e-10
-1.87896e-10
-1.94424e-12
4.96405e-10
1.23313e-09
1.79226e-09
1.38533e-09
-8.98942e-10
-5.51334e-09
-1.16925e-08
-1.68817e-08
-1.67891e-08
-6.30772e-09
1.8858e-08
6.04549e-08
1.16595e-07
1.81845e-07
2.4845e-07
3.08132e-07
3.53683e-07
3.79872e-07
3.83703e-07
3.64427e-07
3.23701e-07
2.65867e-07
1.9793e-07
1.28728e-07
6.7198e-08
2.02298e-08