/*--------------------------------*- C++ -*----------------------------------*\
  =========                 |
  \\      /  F ield         | OpenFOAM: The Open Source CFD Toolbox
   \\    /   O peration     | Website:  https://openfoam.org
    \\  /    A nd           | Version:  13
     \\/     M anipulation  |
\*---------------------------------------------------------------------------*/
FoamFile
{
    format      ascii;
    class       volScalarField;
    location    "6";
    object      T;
}
// * * * * * * * * * * * * * * * * * * * * * * * * * * * * * * * * * * * * * //

dimensions      [0 0 0 1 0 0 0];

internalField   nonuniform List<scalar> 
10000
(
3.89994e-60
-2.22613e-60
2.1731e-59
-9.46448e-59
4.24571e-58
-1.80133e-57
7.26076e-57
-2.75812e-56
9.77629e-56
-3.18363e-55
9.27055e-55
-2.28012e-54
3.98733e-54
-1.6702e-55
-3.82131e-53
2.124e-52
-7.86476e-52
2.20357e-51
-4.39805e-51
3.56587e-51
1.62651e-50
-9.26737e-50
2.56438e-49
-3.47767e-49
-4.52266e-49
3.91117e-48
-1.02337e-47
7.62658e-48
4.23045e-47
-1.73156e-46
2.18899e-46
4.97241e-46
-2.60709e-45
3.17562e-45
8.6624e-45
-3.73308e-44
2.21152e-44
1.79304e-43
-4.338e-43
-3.58276e-43
2.9968e-42
-1.84415e-42
-1.47108e-41
2.53539e-41
5.85629e-41
-1.82959e-40
-2.02651e-40
1.08059e-39
6.86821e-40
-5.83654e-39
-3.01095e-39
2.9959e-38
2.0302e-38
-1.45112e-37
-1.63004e-37
6.25701e-37
1.22251e-36
-2.02577e-36
-7.72335e-36
1.30954e-36
3.74147e-35
4.31722e-35
-1.0683e-34
-3.58566e-34
-1.35123e-34
1.299e-33
3.06028e-33
8.39762e-34
-1.05981e-32
-2.71994e-32
-2.32864e-32
4.45603e-32
1.97944e-31
3.66509e-31
3.34458e-31
-2.25675e-31
-1.59616e-30
-3.78923e-30
-6.39546e-30
-8.64632e-30
-9.7155e-30
-9.11912e-30
-6.98261e-30
-4.00471e-30
-1.13108e-30
8.72182e-31
1.70827e-30
1.57011e-30
9.30779e-31
2.62516e-31
-1.56769e-31
-2.80933e-31
-2.12859e-31
-8.80306e-32
4.14111e-33
3.88232e-32
3.31137e-32
1.43109e-32
-1.33851e-34
-4.71572e-33
-2.22613e-60
1.36176e-60
-1.28679e-59
5.68998e-59
-2.58271e-58
1.11172e-57
-4.55794e-57
1.76797e-56
-6.43747e-56
2.1752e-55
-6.69725e-55
1.81765e-54
-4.03462e-54
5.58925e-54
6.37856e-54
-8.36138e-53
3.75528e-52
-1.17311e-51
2.61815e-51
-3.04073e-51
-5.85074e-51
4.56834e-50
-1.40404e-49
2.21441e-49
1.40254e-49
-1.9719e-48
5.70463e-48
-5.48637e-48
-1.99534e-47
9.35364e-47
-1.34938e-46
-2.27528e-46
1.40726e-45
-1.94298e-45
-4.2086e-45
2.05181e-44
-1.51248e-44
-9.35908e-44
2.46397e-43
1.60132e-43
-1.64151e-42
1.19234e-42
7.88221e-42
-1.46345e-41
-3.07233e-41
1.03019e-40
1.03621e-40
-6.02847e-40
-3.42424e-40
3.24699e-39
1.51825e-39
-1.66726e-38
-1.07561e-38
8.08453e-38
8.93607e-38
-3.48298e-37
-6.79747e-37
1.11777e-36
4.30607e-36
-6.00964e-37
-2.07127e-35
-2.48421e-35
5.72533e-35
2.00683e-34
9.09658e-35
-6.95783e-34
-1.73025e-33
-6.79468e-34
5.50778e-33
1.51906e-32
1.50419e-32
-1.90585e-32
-1.0269e-31
-2.06802e-31
-2.284e-31
-4.39376e-33
6.11708e-31
1.63659e-30
2.87828e-30
3.96371e-30
4.48675e-30
4.20742e-30
3.18549e-30
1.76319e-30
4.02857e-31
-5.24654e-31
-8.82204e-31
-7.73476e-31
-4.36213e-31
-1.01971e-31
9.81342e-32
1.48761e-31
1.06381e-31
4.02887e-32
-5.83601e-33
-2.15714e-32
-1.71034e-32
-6.81946e-33
5.91994e-34
2.59879e-33
2.17311e-59
-1.28679e-59
1.23436e-58
-5.41898e-58
2.4459e-57
-1.0456e-56
4.25227e-56
-1.63314e-55
5.87172e-55
-1.95022e-54
5.85372e-54
-1.52147e-53
3.07004e-53
-2.71704e-53
-1.40157e-52
1.00941e-51
-4.05409e-51
1.19424e-50
-2.5177e-50
2.487e-50
7.45209e-50
-4.84631e-49
1.40937e-48
-2.06341e-48
-1.95939e-48
2.06684e-47
-5.67654e-47
4.84063e-47
2.16752e-46
-9.45955e-46
1.27886e-45
2.51224e-45
-1.42397e-44
1.84901e-44
4.49765e-44
-2.05771e-43
1.36856e-43
9.63428e-43
-2.43184e-42
-1.78874e-42
1.64943e-41
-1.10795e-41
-8.00749e-41
1.43393e-40
3.15389e-40
-1.02164e-39
-1.07718e-39
6.00569e-39
3.60299e-39
-3.23936e-38
-1.58705e-38
1.66325e-37
1.09699e-37
-8.06239e-37
-8.96779e-37
3.47618e-36
6.77897e-36
-1.12139e-35
-4.29109e-35
6.71381e-36
2.07257e-34
2.43506e-34
-5.82918e-34
-1.99664e-33
-8.2587e-34
7.08368e-33
1.71282e-32
5.69591e-33
-5.69603e-32
-1.51343e-31
-1.39579e-31
2.19266e-31
1.06274e-30
2.05008e-30
2.06745e-30
-6.08921e-31
-7.49405e-30
-1.87047e-29
-3.21447e-29
-4.38165e-29
-4.93977e-29
-4.6346e-29
-3.53084e-29
-1.99344e-29
-5.15882e-30
5.03857e-30
9.14829e-30
8.22339e-30
4.76456e-30
1.23966e-30
-9.24482e-31
-1.52271e-30
-1.12245e-30
-4.45905e-31
4.04317e-32
2.15436e-31
1.77362e-31
7.38313e-32
-3.29386e-33
-2.60629e-32
-9.46451e-59
5.69001e-59
-5.41898e-58
2.38656e-57
-1.07974e-56
4.62903e-56
-1.88876e-55
7.28286e-55
-2.63153e-54
8.7989e-54
-2.66713e-53
7.04951e-53
-1.47764e-52
1.6087e-52
4.95917e-52
-4.13453e-51
1.72065e-50
-5.17184e-50
1.11313e-49
-1.17153e-49
-2.99504e-49
2.06915e-48
-6.13953e-48
9.24939e-48
7.63364e-48
-8.8632e-47
2.48264e-46
-2.22234e-46
-9.1715e-46
4.1129e-45
-5.70756e-45
-1.05609e-44
6.1916e-44
-8.2453e-44
-1.91371e-43
8.98198e-43
-6.24314e-43
-4.16074e-42
1.06903e-41
7.46974e-42
-7.1968e-41
5.00586e-41
3.47744e-40
-6.32883e-40
-1.36319e-39
4.48581e-39
4.62752e-39
-2.63193e-38
-1.53762e-38
1.41887e-37
6.78352e-38
-7.2867e-37
-4.74229e-37
3.53383e-36
3.90946e-36
-1.52406e-35
-2.96665e-35
4.91247e-35
1.88027e-34
-2.87241e-35
-9.07484e-34
-1.07263e-33
2.53874e-33
8.75883e-33
3.74034e-33
-3.0835e-32
-7.52909e-32
-2.66787e-32
2.46497e-31
6.63878e-31
6.29215e-31
-9.13145e-31
-4.59622e-30
-9.01238e-30
-9.42561e-30
1.55534e-30
3.04794e-29
7.7942e-29
1.35062e-28
1.84787e-28
2.08632e-28
1.95707e-28
1.4876e-28
8.33881e-29
2.06722e-29
-2.242e-29
-3.95119e-29
-3.51867e-29
-2.01857e-29
-5.05773e-30
4.14435e-30
6.60927e-30
4.81696e-30
1.88059e-30
-2.07067e-31
-9.43901e-31
-7.66146e-31
-3.13935e-31
1.87902e-32
1.14011e-31
4.24573e-58
-2.58274e-58
2.4459e-57
-1.07975e-56
4.89334e-56
-2.10209e-55
8.5965e-55
-3.32353e-54
1.20481e-53
-4.04559e-53
1.23374e-52
-3.29343e-52
7.05192e-52
-8.45041e-52
-1.91018e-51
1.7893e-50
-7.62999e-50
2.32435e-49
-5.07086e-49
5.54911e-49
1.2763e-48
-9.21225e-48
2.77141e-47
-4.25558e-47
-3.16787e-47
3.95826e-46
-1.12412e-45
1.03938e-45
4.05622e-45
-1.85507e-44
2.62177e-44
4.64678e-44
-2.79313e-43
3.78699e-43
8.49577e-43
-4.06389e-42
2.91416e-42
1.86779e-41
-4.86269e-41
-3.26595e-41
3.25582e-40
-2.32354e-40
-1.56761e-39
2.88853e-39
6.12223e-39
-2.03958e-38
-2.06776e-38
1.195e-37
6.83031e-38
-6.43997e-37
-3.01522e-37
3.30809e-36
2.12739e-36
-1.60516e-35
-1.76628e-35
6.92613e-35
1.34495e-34
-2.23264e-34
-8.53626e-34
1.29546e-34
4.11967e-33
4.88427e-33
-1.14907e-32
-3.98064e-32
-1.73238e-32
1.39472e-31
3.4267e-31
1.26249e-31
-1.11045e-30
-3.01783e-30
-2.91195e-30
4.00178e-30
2.06927e-29
4.10344e-29
4.39692e-29
-3.56453e-30
-1.31028e-28
-3.41385e-28
-5.95255e-28
-8.16642e-28
-9.23023e-28
-8.65717e-28
-6.56947e-28
-3.663e-28
-8.78218e-29
1.02904e-28
1.77661e-28
1.57164e-28
8.95175e-29
2.18026e-29
-1.91143e-29
-2.98217e-29
-2.1562e-29
-8.31341e-30
1.03325e-30
4.28664e-30
3.44552e-30
1.3962e-30
-9.87879e-32
-5.1722e-31
-1.80134e-57
1.11173e-57
-1.0456e-56
4.62902e-56
-2.10207e-55
9.05161e-55
-3.71146e-54
1.43931e-53
-5.237e-53
1.76689e-52
-5.42423e-52
1.46353e-51
-3.20362e-51
4.19344e-51
6.58871e-51
-7.28942e-50
3.20161e-49
-9.90776e-49
2.1953e-48
-2.50638e-48
-5.09395e-48
3.88396e-47
-1.18762e-46
1.86384e-46
1.21846e-46
-1.67502e-45
4.83518e-45
-4.63732e-45
-1.69619e-44
7.94356e-44
-1.14678e-43
-1.93056e-43
1.19637e-42
-1.65652e-42
-3.56882e-42
1.74688e-41
-1.29852e-41
-7.95348e-41
2.10367e-40
1.34536e-40
-1.39945e-39
1.02924e-39
6.70925e-39
-1.25482e-38
-2.60824e-38
8.82052e-38
8.75324e-38
-5.15942e-37
-2.86942e-37
2.77936e-36
1.26739e-36
-1.42817e-35
-9.04615e-36
6.93451e-35
7.57781e-35
-2.99429e-34
-5.79536e-34
9.65552e-34
3.68507e-33
-5.57319e-34
-1.77867e-32
-2.1153e-32
4.94542e-32
1.72074e-31
7.6437e-32
-5.99732e-31
-1.48378e-30
-5.70248e-31
4.75244e-30
1.30503e-29
1.28486e-29
-1.65646e-29
-8.84877e-29
-1.7779e-28
-1.95769e-28
-2.1516e-30
5.28908e-28
1.41152e-27
2.48033e-27
3.41435e-27
3.86428e-27
3.62374e-27
2.74421e-27
1.52005e-27
3.48965e-28
-4.49932e-28
-7.58482e-28
-6.65668e-28
-3.7588e-28
-8.83373e-29
8.40273e-29
1.27843e-28
9.15666e-29
3.47745e-29
-4.92652e-30
-1.85155e-29
-1.47135e-29
-5.8836e-30
4.9372e-31
2.23131e-30
7.26078e-57
-4.55796e-57
4.25227e-56
-1.88876e-55
8.59646e-55
-3.71147e-54
1.52623e-53
-5.93829e-53
2.16914e-52
-7.35436e-52
2.27292e-51
-6.19708e-51
1.38487e-50
-1.95232e-50
-2.02949e-50
2.82392e-49
-1.28149e-48
4.03288e-48
-9.08206e-48
1.08142e-47
1.92314e-47
-1.56264e-46
4.86335e-46
-7.80954e-46
-4.3772e-46
6.76676e-45
-1.98854e-44
1.98135e-44
6.76038e-44
-3.25158e-43
4.80318e-43
7.63494e-43
-4.89917e-42
6.9406e-42
1.42947e-41
-7.18259e-41
5.54935e-41
3.23578e-40
-8.71229e-40
-5.26151e-40
5.75447e-39
-4.37442e-39
-2.74545e-38
5.22219e-38
1.06159e-37
-3.65267e-37
-3.53551e-37
2.13267e-36
1.14799e-36
-1.14838e-35
-5.07167e-36
5.90345e-35
3.67058e-35
-2.86893e-34
-3.10791e-34
1.24002e-33
2.38949e-33
-4.00203e-33
-1.52302e-32
2.31265e-33
7.35473e-32
8.76825e-32
-2.03909e-31
-7.12342e-31
-3.227e-31
2.46989e-30
6.15374e-30
2.46491e-30
-1.94732e-29
-5.40573e-29
-5.43341e-29
6.53903e-29
3.62206e-28
7.38017e-28
8.3584e-28
8.65955e-29
-2.02406e-27
-5.56021e-27
-9.85887e-27
-1.36243e-26
-1.54432e-26
-1.44791e-26
-1.0939e-26
-6.01318e-27
-1.30925e-27
1.8854e-27
3.09836e-27
2.69552e-27
1.50736e-27
3.39696e-28
-3.54054e-28
-5.24586e-28
-3.71886e-28
-1.38866e-28
2.24152e-29
7.6592e-29
6.01243e-29
2.36942e-29
-2.33568e-30
-9.21819e-30
-2.75812e-56
1.76797e-56
-1.63314e-55
7.28283e-55
-3.3235e-54
1.43931e-53
-5.93826e-53
2.319e-52
-8.5072e-52
2.89951e-51
-9.02394e-51
2.48642e-50
-5.6684e-50
8.52548e-50
5.19058e-50
-1.03219e-48
4.8612e-48
-1.5582e-47
3.57069e-47
-4.4372e-47
-6.79513e-47
5.96167e-46
-1.89237e-45
3.11487e-45
1.44002e-45
-2.5937e-44
7.77707e-44
-8.07144e-44
-2.55052e-43
1.26526e-42
-1.91716e-42
-2.85284e-42
1.9075e-41
-2.77238e-41
-5.42326e-41
2.80984e-40
-2.26516e-40
-1.25048e-39
3.43688e-39
1.93644e-39
-2.25171e-38
1.77649e-38
1.06823e-37
-2.07219e-37
-4.10407e-37
1.44129e-36
1.35391e-36
-8.39777e-36
-4.34252e-36
4.51999e-35
1.91801e-35
-2.32486e-34
-1.41233e-34
1.1311e-33
1.2118e-33
-4.8955e-33
-9.37842e-33
1.58236e-32
5.99618e-32
-9.22964e-33
-2.89832e-31
-3.46126e-31
8.01589e-31
2.81026e-30
1.29729e-30
-9.69423e-30
-2.43264e-29
-1.01532e-29
7.60093e-29
2.13451e-28
2.19232e-28
-2.44569e-28
-1.41192e-27
-2.92122e-27
-3.40779e-27
-6.76205e-28
7.27432e-27
2.07209e-26
3.71401e-26
5.15617e-26
5.85502e-26
5.48822e-26
4.13487e-26
2.25239e-26
4.58349e-27
-7.5373e-27
-1.20466e-26
-1.03773e-26
-5.73866e-27
-1.22888e-27
1.42351e-27
2.04988e-27
1.43661e-27
5.2615e-28
-9.70629e-29
-3.01951e-28
-2.33874e-28
-9.06669e-29
1.04559e-29
3.62905e-29
9.77633e-56
-6.43751e-56
5.87171e-55
-2.63153e-54
1.20481e-53
-5.23701e-53
2.16914e-52
-8.50724e-52
3.13604e-51
-1.07507e-50
3.37093e-50
-9.38953e-50
2.1829e-49
-3.47838e-49
-8.70407e-50
3.53172e-48
-1.73618e-47
5.67977e-47
-1.32643e-46
1.72243e-46
2.21915e-46
-2.14297e-45
6.95653e-45
-1.17654e-44
-4.20496e-45
9.37426e-44
-2.87665e-43
3.12067e-43
9.04372e-43
-4.65442e-42
7.25771e-42
9.99133e-42
-7.02295e-41
1.05089e-40
1.93541e-40
-1.04039e-39
8.7952e-40
4.56383e-39
-1.2852e-38
-6.63848e-39
8.34146e-38
-6.86638e-38
-3.93067e-37
7.80446e-37
1.49825e-36
-5.39346e-36
-4.88339e-36
3.13506e-35
1.5409e-35
-1.68662e-34
-6.79921e-35
8.6815e-34
5.11922e-34
-4.22994e-33
-4.46706e-33
1.83417e-32
3.48623e-32
-5.94279e-32
-2.23805e-31
3.53751e-32
1.08351e-30
1.29475e-30
-2.99114e-30
-1.05164e-29
-4.94118e-30
3.60988e-29
9.12405e-29
3.96717e-29
-2.81314e-28
-7.99795e-28
-8.40323e-28
8.61294e-28
5.2166e-27
1.09764e-26
1.32128e-26
3.91352e-27
-2.42924e-26
-7.25416e-26
-1.31769e-25
-1.83957e-25
-2.0934e-25
-1.96171e-25
-1.47303e-25
-7.93551e-26
-1.47546e-26
2.8621e-26
4.4361e-26
3.77831e-26
2.06229e-26
4.14215e-27
-5.43761e-27
-7.59151e-27
-5.25179e-27
-1.88044e-27
3.98574e-28
1.12924e-27
8.6176e-28
3.2789e-28
-4.41854e-29
-1.35514e-28
-3.18365e-55
2.17522e-55
-1.95022e-54
8.79893e-54
-4.04558e-53
1.7669e-52
-7.3544e-52
2.89954e-51
-1.07507e-50
3.71025e-50
-1.17309e-49
3.30564e-49
-7.83853e-49
1.31702e-48
-7.54212e-50
-1.11813e-47
5.78366e-47
-1.93643e-46
4.61872e-46
-6.28189e-46
-6.56148e-46
7.19222e-45
-2.39689e-44
4.17939e-44
1.01462e-44
-3.16695e-43
9.98877e-43
-1.13829e-42
-2.98293e-42
1.60638e-41
-2.58947e-41
-3.24097e-41
2.42683e-40
-3.75717e-40
-6.43267e-40
3.62036e-39
-3.23149e-39
-1.56048e-38
4.52628e-38
2.08572e-38
-2.90515e-37
2.51305e-37
1.35769e-36
-2.77335e-36
-5.12336e-36
1.90212e-35
1.64349e-35
-1.10255e-34
-5.06919e-35
5.92857e-34
2.23181e-34
-3.05461e-33
-1.73167e-33
1.49121e-32
1.54506e-32
-6.48277e-32
-1.21908e-31
2.10814e-31
7.86896e-31
-1.29966e-31
-3.81921e-30
-4.55918e-30
1.05335e-29
3.70995e-29
1.77119e-29
-1.26767e-28
-3.22719e-28
-1.46158e-28
9.81149e-28
2.82672e-27
3.04243e-27
-2.83143e-27
-1.81526e-26
-3.89225e-26
-4.84581e-26
-1.92933e-26
7.41189e-26
2.36181e-25
4.36398e-25
6.13499e-25
7.00018e-25
6.55754e-25
4.90355e-25
2.60483e-25
4.25709e-26
-1.0264e-25
-1.53694e-25
-1.29177e-25
-6.94096e-26
-1.28175e-26
1.96221e-26
2.64744e-26
1.80432e-26
6.28812e-27
-1.54477e-27
-3.9817e-27
-2.98822e-27
-1.11249e-27
1.756e-28
4.77025e-28
9.27051e-55
-6.69725e-55
5.85367e-54
-2.66711e-53
1.23372e-52
-5.4242e-52
2.27291e-51
-9.02393e-51
3.37091e-50
-1.17308e-49
3.74583e-49
-1.06942e-48
2.58937e-48
-4.57596e-48
1.51054e-48
3.21752e-47
-1.7723e-46
6.09795e-46
-1.49039e-45
2.13183e-45
1.68975e-45
-2.22379e-44
7.65315e-44
-1.38284e-43
-1.56737e-44
9.87399e-43
-3.22209e-42
3.88562e-42
9.00897e-42
-5.14591e-41
8.63307e-41
9.55482e-41
-7.78848e-40
1.25657e-39
1.96146e-39
-1.17238e-38
1.11578e-38
4.94176e-38
-1.48813e-37
-5.83711e-38
9.42116e-37
-8.65167e-37
-4.35658e-36
9.22433e-36
1.62215e-35
-6.26872e-35
-5.08925e-35
3.6212e-34
1.51754e-34
-1.94611e-33
-6.65096e-34
1.00407e-32
5.39072e-33
-4.91471e-32
-4.96062e-32
2.14429e-31
3.97264e-31
-7.01149e-31
-2.5837e-30
4.56646e-31
1.25889e-29
1.49759e-29
-3.4738e-29
-1.22357e-28
-5.91988e-29
4.16443e-28
1.06765e-27
5.03624e-28
-3.19815e-27
-9.34775e-27
-1.03257e-26
8.58199e-27
5.89861e-26
1.29232e-25
1.66932e-25
8.44998e-26
-2.00603e-25
-7.0437e-25
-1.33183e-24
-1.88951e-24
-2.16346e-24
-2.02574e-24
-1.50661e-24
-7.85549e-25
-1.04491e-25
3.44983e-25
4.96474e-25
4.1063e-25
2.16369e-25
3.55177e-26
-6.63889e-26
-8.61864e-26
-5.77074e-26
-1.94486e-26
5.61523e-27
1.31279e-26
9.66443e-27
3.50533e-27
-6.52611e-28
-1.56984e-27
-2.28013e-54
1.81766e-54
-1.52147e-53
7.04951e-53
-3.29341e-52
1.46354e-51
-6.19709e-51
2.48644e-50
-9.38952e-50
3.30563e-49
-1.06943e-48
3.10297e-48
-7.69429e-48
1.43113e-47
-8.36319e-48
-8.15724e-47
4.8831e-46
-1.73841e-45
4.37794e-45
-6.63474e-45
-3.4523e-45
6.19802e-44
-2.22485e-43
4.2009e-43
-1.69327e-44
-2.78358e-42
9.5024e-42
-1.2271e-41
-2.42518e-41
1.50509e-40
-2.65624e-40
-2.47362e-40
2.28457e-39
-3.88525e-39
-5.3494e-39
3.48139e-38
-3.58628e-38
-1.42375e-37
4.50911e-37
1.36921e-37
-2.80426e-36
2.77634e-36
1.2783e-35
-2.83914e-35
-4.67009e-35
1.90711e-34
1.41689e-34
-1.09688e-33
-3.99626e-34
5.89121e-33
1.7348e-33
-3.04542e-32
-1.50899e-32
1.49629e-31
1.4543e-31
-6.56249e-31
-1.18982e-30
2.1638e-30
7.82301e-30
-1.52967e-30
-3.83498e-29
-4.52803e-29
1.06125e-28
3.72782e-28
1.81985e-28
-1.26525e-27
-3.26515e-27
-1.60429e-27
9.62823e-27
2.85931e-26
3.25002e-26
-2.35245e-26
-1.76797e-25
-3.97315e-25
-5.34916e-25
-3.3353e-25
4.52142e-25
1.87613e-24
3.66924e-24
5.27312e-24
6.06662e-24
5.67689e-24
4.19039e-24
2.12725e-24
1.88048e-25
-1.0751e-24
-1.47562e-24
-1.19593e-24
-6.14182e-25
-8.38943e-26
2.08378e-25
2.58634e-25
1.69426e-25
5.46565e-26
-1.89747e-26
-3.99974e-26
-2.87759e-26
-1.0102e-26
2.24942e-27
4.77255e-27
3.98738e-54
-4.03466e-54
3.07005e-53
-1.47765e-52
7.05188e-52
-3.20363e-51
1.38487e-50
-5.66846e-50
2.18291e-49
-7.83851e-49
2.5894e-48
-7.6943e-48
1.96905e-47
-3.88242e-47
3.27568e-47
1.70555e-46
-1.15795e-45
4.32383e-45
-1.13432e-44
1.84856e-44
3.73343e-45
-1.49449e-43
5.70875e-43
-1.14428e-42
2.72754e-43
6.83219e-42
-2.49349e-41
3.52184e-41
5.50652e-41
-3.90746e-40
7.39602e-40
5.19959e-40
-5.96015e-39
1.0904e-38
1.24013e-38
-9.25131e-38
1.05808e-37
3.61603e-37
-1.23369e-36
-2.22494e-37
7.48295e-36
-8.19517e-36
-3.33922e-35
7.94587e-35
1.18391e-34
-5.25405e-34
-3.39141e-34
3.00393e-33
8.56987e-34
-1.61222e-32
-3.63274e-33
8.35916e-32
3.63149e-32
-4.13044e-31
-3.78476e-31
1.82606e-30
3.20223e-30
-6.10032e-30
-2.14122e-29
4.86327e-30
1.06013e-28
1.23344e-28
-2.95432e-28
-1.02978e-27
-5.03238e-28
3.49325e-27
9.06469e-27
4.63989e-27
-2.62854e-26
-7.94777e-26
-9.33374e-26
5.6363e-26
4.79449e-25
1.11197e-24
1.57159e-24
1.18801e-24
-6.9514e-25
-4.24541e-24
-8.78873e-24
-1.28901e-23
-1.49399e-23
-1.39666e-23
-1.01893e-23
-4.95261e-24
-6.54159e-26
3.05615e-24
3.95097e-24
3.11484e-24
1.54187e-24
1.47843e-25
-5.97095e-25
-7.0132e-25
-4.46365e-25
-1.3532e-25
5.88309e-26
1.10559e-25
7.72641e-26
2.59634e-26
-7.10077e-27
-1.31574e-26
-1.67091e-55
5.58935e-54
-2.71704e-53
1.60871e-52
-8.45024e-52
4.19348e-51
-1.95233e-50
8.52561e-50
-3.47839e-49
1.31701e-48
-4.57602e-48
1.43113e-47
-3.88244e-47
8.35466e-47
-9.79213e-47
-2.38723e-46
2.11648e-45
-8.60908e-45
2.42071e-44
-4.39885e-44
1.012e-44
2.81916e-43
-1.20931e-42
2.66968e-42
-1.42654e-42
-1.33596e-41
5.5092e-41
-8.90465e-41
-8.99275e-41
8.49466e-40
-1.7989e-39
-6.63783e-40
1.3084e-38
-2.68938e-38
-2.12433e-38
2.09787e-37
-2.80109e-37
-7.56319e-37
2.93606e-36
-4.04191e-38
-1.71077e-35
2.17836e-35
7.35732e-35
-1.96145e-34
-2.4642e-34
1.26661e-33
6.22137e-34
-7.17585e-33
-1.12706e-33
3.84781e-32
4.30221e-33
-2.0052e-31
-6.69271e-32
1.00028e-30
8.24831e-31
-4.48191e-30
-7.42126e-30
1.53079e-29
5.11037e-29
-1.45724e-29
-2.57535e-28
-2.90866e-28
7.28743e-28
2.49558e-27
1.20033e-27
-8.50116e-27
-2.21266e-26
-1.18027e-26
6.30164e-26
1.94658e-25
2.37925e-25
-1.09573e-25
-1.13666e-24
-2.75128e-24
-4.13474e-24
-3.78585e-24
-1.84794e-25
7.13547e-24
1.67738e-23
2.56114e-23
3.01035e-23
2.80907e-23
2.00384e-23
8.89612e-24
-1.37494e-24
-7.70766e-24
-9.16598e-24
-6.92406e-24
-3.22265e-24
-7.82609e-26
1.52018e-24
1.65773e-24
1.01103e-24
2.76475e-25
-1.63865e-25
-2.68426e-25
-1.80139e-25
-5.66444e-26
2.01096e-26
3.18339e-26
-3.82129e-53
6.37838e-54
-1.40156e-52
4.95914e-52
-1.91021e-51
6.58863e-51
-2.02945e-50
5.19033e-50
-8.70377e-50
-7.54136e-50
1.51065e-48
-8.36327e-48
3.27572e-47
-9.79204e-47
2.00855e-46
-7.36598e-47
-1.69378e-45
9.75486e-45
-3.39305e-44
7.90405e-44
-8.27474e-44
-2.61539e-43
1.70328e-42
-4.74331e-42
5.40438e-42
1.44974e-41
-8.75512e-41
1.85606e-40
1.89792e-41
-1.3022e-39
3.52929e-39
-8.65654e-40
-2.06276e-38
5.43528e-38
9.33603e-39
-3.58544e-37
6.37448e-37
1.04225e-36
-5.57568e-36
2.23834e-36
2.98618e-35
-5.01407e-35
-1.17461e-34
4.00522e-34
3.3328e-34
-2.47614e-33
-4.68452e-34
1.37858e-32
-1.4162e-33
-7.38207e-32
8.91319e-33
3.88834e-31
5.00239e-32
-1.97783e-30
-1.26726e-30
9.10419e-30
1.33332e-29
-3.24748e-29
-9.80012e-29
4.06791e-29
5.13044e-28
5.39886e-28
-1.50485e-27
-4.93722e-27
-2.22787e-27
1.71034e-26
4.43392e-26
2.46601e-26
-1.23822e-25
-3.93539e-25
-5.09017e-25
1.34216e-25
2.18338e-24
5.66385e-24
9.31119e-24
1.05621e-23
6.64379e-24
-3.56957e-24
-1.80766e-23
-3.18989e-23
-3.92061e-23
-3.6375e-23
-2.41085e-23
-7.21479e-24
7.87396e-24
1.63011e-23
1.68164e-23
1.16519e-23
4.68259e-24
-7.73107e-25
-3.25612e-24
-3.14885e-24
-1.77229e-24
-3.79697e-25
3.943e-25
5.33774e-25
3.34153e-25
9.20932e-26
-4.91682e-26
-6.29542e-26
2.124e-52
-8.36137e-53
1.00941e-51
-4.13452e-51
1.7893e-50
-7.2894e-50
2.82391e-49
-1.03219e-48
3.53171e-48
-1.11813e-47
3.21751e-47
-8.15723e-47
1.70554e-46
-2.38725e-46
-7.36602e-47
1.91124e-45
-7.51199e-45
1.76336e-44
-1.83696e-44
-5.16294e-44
3.24975e-43
-8.36929e-43
7.18451e-43
3.35283e-42
-1.62056e-41
2.91483e-41
2.04051e-41
-2.58101e-40
5.97174e-40
9.42164e-41
-4.17259e-39
9.61775e-39
4.58969e-39
-7.14143e-38
1.17728e-37
2.20243e-37
-1.12222e-36
5.08314e-37
6.02825e-36
-1.14166e-35
-2.14641e-35
9.11498e-35
3.4733e-35
-5.54218e-34
2.02422e-34
3.0036e-33
-2.49965e-33
-1.57581e-32
1.66572e-32
8.40699e-32
-8.27995e-32
-4.60766e-31
2.77238e-31
2.50719e-30
8.72121e-32
-1.25706e-29
-1.12438e-29
5.06645e-29
1.11291e-28
-1.03633e-28
-6.68426e-28
-5.23973e-28
2.21039e-27
6.25732e-27
1.98542e-27
-2.33233e-26
-5.83403e-26
-3.38584e-26
1.59294e-25
5.34948e-25
7.79222e-25
9.70952e-26
-2.60397e-24
-8.09029e-24
-1.6015e-23
-2.45687e-23
-3.10677e-23
-3.33678e-23
-3.1262e-23
-2.68121e-23
-2.31878e-23
-2.26629e-23
-2.51251e-23
-2.81457e-23
-2.85849e-23
-2.46062e-23
-1.6768e-23
-7.57454e-24
4.93058e-26
4.28038e-24
5.03426e-24
3.55568e-24
1.45953e-24
-1.01437e-25
-7.47395e-25
-6.90245e-25
-3.49386e-25
-4.88119e-26
9.48124e-26
8.02476e-26
-7.86477e-52
3.75528e-52
-4.05409e-51
1.72065e-50
-7.63e-50
3.2016e-49
-1.28149e-48
4.8612e-48
-1.73617e-47
5.78365e-47
-1.77231e-46
4.88309e-46
-1.15795e-45
2.11648e-45
-1.69377e-45
-7.51199e-45
4.67634e-44
-1.54816e-43
3.39961e-43
-3.50429e-43
-8.91285e-43
5.77203e-42
-1.55924e-41
1.82604e-41
3.73956e-41
-2.39383e-40
5.2185e-40
-8.99709e-41
-2.95184e-39
8.67649e-39
-4.92085e-39
-3.95726e-38
1.22091e-37
-3.90994e-38
-6.25783e-37
1.44505e-36
9.24696e-37
-9.67991e-36
9.90966e-36
3.9171e-35
-1.04632e-34
-8.93961e-35
6.50107e-34
-1.16425e-34
-3.29839e-33
2.7348e-33
1.53722e-32
-1.98001e-32
-7.10516e-32
1.07193e-31
3.41568e-31
-4.75638e-31
-1.71126e-30
1.61044e-30
8.52519e-30
-2.27999e-30
-3.8935e-29
-2.12474e-29
1.44276e-28
2.3123e-28
-3.2231e-28
-1.27067e-27
-3.76074e-28
4.0654e-27
6.64795e-27
-4.57933e-27
-2.65605e-26
-1.6106e-26
7.24562e-26
1.42582e-25
-1.64288e-25
-1.19436e-24
-2.27136e-24
-1.94158e-25
1.15839e-23
4.14927e-23
9.54684e-23
1.71279e-22
2.55176e-22
3.24307e-22
3.55225e-22
3.34701e-22
2.66751e-22
1.71533e-22
7.64903e-23
4.69316e-24
-3.33754e-23
-4.09898e-23
-3.00941e-23
-1.39102e-23
-1.40098e-24
4.40394e-24
4.84097e-24
2.83693e-24
7.6083e-25
-3.64493e-25
-5.84204e-25
-3.64018e-25
-9.96288e-26
4.78485e-26
2.20357e-51
-1.17312e-51
1.19424e-50
-5.17184e-50
2.32435e-49
-9.90777e-49
4.03288e-48
-1.5582e-47
5.67977e-47
-1.93642e-46
6.09797e-46
-1.73841e-45
4.32383e-45
-8.60908e-45
9.75483e-45
1.76337e-44
-1.54816e-43
5.75058e-43
-1.42192e-42
2.00386e-42
1.59392e-42
-1.98747e-41
6.47875e-41
-1.05301e-40
-5.3743e-41
8.63167e-40
-2.4522e-39
2.13628e-39
9.05453e-39
-3.89111e-38
4.91626e-38
1.11335e-37
-5.67181e-37
6.34606e-37
1.99169e-36
-7.76511e-36
3.12042e-36
3.92763e-35
-8.18602e-35
-9.96411e-35
5.95317e-34
-1.82373e-34
-3.07497e-33
3.99277e-33
1.3232e-32
-3.08203e-32
-5.20332e-32
1.85426e-31
2.09378e-31
-9.9513e-31
-9.9378e-31
4.95633e-30
5.85497e-30
-2.26228e-29
-3.83674e-29
8.75636e-29
2.42656e-28
-2.16113e-28
-1.32904e-27
-4.07419e-28
5.53873e-27
8.98443e-27
-1.16738e-26
-5.67744e-26
-4.37054e-26
1.60805e-25
4.80741e-25
3.05213e-25
-1.25764e-24
-3.93522e-24
-4.31065e-24
4.0484e-24
2.52737e-23
5.10085e-23
5.19582e-23
-1.83271e-23
-2.01573e-22
-5.02199e-22
-8.64441e-22
-1.1802e-21
-1.33182e-21
-1.24978e-21
-9.51503e-22
-5.36271e-22
-1.38176e-22
1.35205e-22
2.43897e-22
2.17477e-22
1.24169e-22
3.04365e-23
-2.60341e-23
-4.06229e-23
-2.91355e-23
-1.09924e-23
1.62704e-24
5.86985e-24
4.59834e-24
1.78781e-24
-2.00722e-25
-7.0427e-25
-4.39806e-51
2.61816e-51
-2.5177e-50
1.11313e-49
-5.07085e-49
2.1953e-48
-9.08206e-48
3.5707e-47
-1.32643e-46
4.61871e-46
-1.49039e-45
4.37794e-45
-1.13431e-44
2.4207e-44
-3.39304e-44
-1.83698e-44
3.39961e-43
-1.42192e-42
3.84895e-42
-6.39875e-42
-4.06327e-43
4.55676e-41
-1.71971e-40
3.29467e-40
-2.99492e-41
-2.0589e-39
6.93299e-39
-8.50186e-39
-1.86355e-38
1.06883e-37
-1.74791e-37
-2.08697e-37
1.58275e-36
-2.39993e-36
-4.28521e-36
2.30794e-35
-1.88344e-35
-1.016e-34
2.76381e-34
1.66286e-34
-1.80334e-33
1.30659e-33
8.63051e-33
-1.56911e-32
-3.40727e-32
1.09658e-31
1.19527e-31
-6.38699e-31
-4.26717e-31
3.41979e-30
2.00894e-30
-1.73725e-29
-1.36928e-29
8.25779e-29
1.05963e-28
-3.42526e-28
-7.59445e-28
9.9881e-28
4.56342e-27
3.47178e-28
-2.05993e-26
-2.9345e-26
4.90013e-26
2.07354e-25
1.43321e-25
-6.19157e-25
-1.80635e-24
-1.20542e-24
4.57994e-24
1.51743e-23
1.90471e-23
-7.911e-24
-8.74053e-23
-2.06896e-22
-2.90162e-22
-2.02801e-22
1.87271e-22
9.13721e-22
1.83986e-21
2.67451e-21
3.09082e-21
2.8914e-21
2.12087e-21
1.05252e-21
5.38785e-23
-5.87501e-22
-7.77914e-22
-6.17473e-22
-3.06852e-22
-3.05542e-23
1.1694e-22
1.37342e-22
8.68811e-23
2.57545e-23
-1.20136e-23
-2.17203e-23
-1.49188e-23
-4.82983e-24
1.53835e-24
2.57613e-24
3.56589e-51
-3.04076e-51
2.487e-50
-1.17153e-49
5.54908e-49
-2.50639e-48
1.08142e-47
-4.43722e-47
1.72243e-46
-6.28188e-46
2.13184e-45
-6.63475e-45
1.84857e-44
-4.39884e-44
7.90405e-44
-5.16294e-44
-3.5043e-43
2.00386e-42
-6.39875e-42
1.32181e-41
-9.71642e-42
-5.34571e-41
2.74253e-40
-6.57372e-40
5.03697e-40
2.6602e-39
-1.21134e-38
2.0863e-38
1.55163e-38
-1.786e-37
3.90924e-37
1.07065e-37
-2.70169e-36
5.62387e-36
4.22285e-36
-4.27609e-35
5.6534e-35
1.5388e-34
-5.86058e-34
-1.55021e-35
3.41182e-33
-4.12884e-33
-1.48212e-32
3.75404e-32
5.1298e-32
-2.42833e-31
-1.43154e-31
1.37461e-30
3.57702e-31
-7.34204e-30
-1.6436e-30
3.79313e-29
1.72601e-29
-1.86311e-28
-1.78925e-28
8.1275e-28
1.49205e-27
-2.6168e-27
-9.79361e-27
1.16394e-27
4.70958e-26
6.04605e-26
-1.20909e-25
-4.68364e-25
-3.00701e-25
1.44308e-24
4.17483e-24
2.95633e-24
-1.01703e-23
-3.56663e-23
-4.95194e-23
3.74193e-24
1.85962e-22
5.03958e-22
8.45746e-22
9.76597e-22
6.37795e-22
-2.80883e-22
-1.60112e-21
-2.86685e-21
-3.53986e-21
-3.28415e-21
-2.16356e-21
-6.21675e-22
7.49031e-22
1.50397e-21
1.53331e-21
1.04784e-21
4.06326e-22
-8.80451e-23
-3.06086e-22
-2.87915e-22
-1.57528e-22
-2.97892e-23
3.90127e-23
4.94985e-23
2.99065e-23
7.51108e-24
-5.06811e-24
-5.81134e-24
1.6265e-50
-5.85071e-51
7.45208e-50
-2.99503e-49
1.2763e-48
-5.09393e-48
1.92313e-47
-6.79508e-47
2.21914e-46
-6.56146e-46
1.68974e-45
-3.45227e-45
3.73328e-45
1.01199e-44
-8.27476e-44
3.24975e-43
-8.91284e-43
1.59391e-42
-4.06306e-43
-9.71643e-42
4.18148e-41
-9.3707e-41
6.03433e-41
4.21008e-40
-1.84361e-39
3.2394e-39
1.9797e-39
-2.7039e-38
6.44024e-38
-1.9077e-39
-4.0362e-37
9.9785e-37
2.14818e-37
-6.63342e-36
1.21844e-35
1.7143e-35
-1.03647e-34
6.67196e-35
5.13518e-34
-1.09138e-33
-1.6439e-33
8.0902e-33
1.5991e-33
-4.7097e-32
2.38343e-32
2.48066e-31
-2.37938e-31
-1.28005e-30
1.49536e-30
6.7839e-30
-7.23356e-30
-3.71484e-29
2.39732e-29
2.02029e-28
4.95838e-30
-1.00781e-27
-9.19093e-28
3.99375e-27
9.02984e-27
-7.51033e-27
-5.31245e-26
-4.68219e-26
1.65479e-25
5.08907e-25
2.43072e-25
-1.73096e-24
-4.82276e-24
-3.80024e-24
1.08013e-23
4.31691e-23
7.28852e-23
3.63449e-23
-1.71633e-22
-6.62047e-22
-1.49055e-21
-2.60512e-21
-3.84158e-21
-4.97926e-21
-5.82661e-21
-6.28321e-21
-6.34228e-21
-6.04411e-21
-5.42848e-21
-4.52715e-21
-3.39901e-21
-2.1668e-21
-1.01206e-21
-1.18349e-22
4.03573e-22
5.59516e-22
4.57613e-22
2.48442e-22
5.80134e-23
-5.0849e-23
-7.73812e-23
-5.52764e-23
-2.15436e-23
1.72015e-24
1.01689e-23
6.31947e-24
-9.26738e-50
4.56835e-50
-4.84631e-49
2.06915e-48
-9.21226e-48
3.88397e-47
-1.56264e-46
5.96168e-46
-2.14297e-45
7.19222e-45
-2.2238e-44
6.19802e-44
-1.49449e-43
2.81916e-43
-2.61539e-43
-8.36928e-43
5.77203e-42
-1.98747e-41
4.55676e-41
-5.34572e-41
-9.37071e-41
7.218e-40
-2.08253e-39
2.78936e-39
3.78402e-39
-3.03983e-38
7.30294e-38
-3.28683e-38
-3.56057e-37
1.19181e-36
-9.9539e-37
-4.65586e-36
1.69987e-35
-1.0771e-35
-7.63601e-35
2.13523e-34
4.16745e-35
-1.2807e-33
1.79948e-33
4.48771e-33
-1.58443e-32
-5.44549e-33
9.11363e-32
-5.65954e-32
-4.34687e-31
5.92518e-31
1.91342e-30
-3.84837e-30
-8.48167e-30
2.07302e-29
4.06334e-29
-9.82906e-29
-2.13849e-28
4.00931e-28
1.17294e-27
-1.21515e-27
-6.14447e-27
7.08423e-28
2.77833e-26
2.44699e-26
-9.19997e-26
-2.1315e-25
1.03567e-25
1.00843e-24
1.07945e-24
-2.2584e-24
-7.87356e-24
-4.98115e-24
2.07399e-23
5.80384e-23
3.67741e-23
-1.47522e-22
-4.863e-22
-6.11976e-22
3.70349e-22
3.71548e-21
1.04128e-20
2.03262e-20
3.16435e-20
4.11714e-20
4.55547e-20
4.28632e-20
3.36395e-20
2.07468e-20
8.06967e-21
-1.18633e-21
-5.66924e-21
-6.00189e-21
-3.99061e-21
-1.52871e-21
1.86885e-22
8.4683e-22
7.49017e-22
3.67639e-22
4.4963e-23
-9.94704e-23
-1.03042e-22
-5.15663e-23
-6.0184e-24
1.22799e-23
2.56438e-49
-1.40404e-49
1.40937e-48
-6.13952e-48
2.77141e-47
-1.18762e-46
4.86335e-46
-1.89237e-45
6.95653e-45
-2.39688e-44
7.65317e-44
-2.22485e-43
5.70874e-43
-1.20931e-42
1.70328e-42
7.18457e-43
-1.55924e-41
6.47875e-41
-1.71971e-40
2.74253e-40
6.03442e-41
-2.08253e-39
7.45396e-39
-1.33704e-38
-1.84021e-39
9.24713e-38
-2.86363e-37
2.99146e-37
9.11827e-37
-4.42818e-36
6.27612e-36
1.09933e-35
-6.44924e-35
8.14606e-35
2.07472e-34
-8.97702e-34
4.83748e-34
4.33578e-33
-9.799e-33
-9.98732e-33
6.86277e-32
-2.86227e-32
-3.47172e-31
4.91686e-31
1.46866e-30
-3.67219e-30
-5.68665e-30
2.18483e-29
2.26936e-29
-1.16903e-28
-1.08866e-28
5.82947e-28
6.58478e-28
-2.66889e-27
-4.42074e-27
1.03538e-26
2.8386e-26
-2.54098e-26
-1.56476e-25
-5.11284e-26
6.49091e-25
1.08411e-24
-1.30257e-24
-6.73219e-24
-5.7154e-24
1.798e-23
5.7734e-23
4.40218e-23
-1.33587e-22
-4.6686e-22
-5.90543e-22
2.52563e-22
2.6918e-21
6.14613e-21
7.84737e-21
3.08897e-21
-1.26203e-20
-4.01954e-20
-7.45035e-20
-1.04999e-19
-1.19976e-19
-1.12419e-19
-8.39778e-20
-4.44804e-20
-7.15987e-21
1.75347e-20
2.6016e-20
2.16205e-20
1.13622e-20
1.82065e-21
-3.50624e-21
-4.48729e-21
-2.95337e-21
-9.49203e-22
3.32482e-22
6.90776e-22
4.89596e-22
1.65417e-22
-4.4157e-23
-8.20345e-23
-3.47768e-49
2.21442e-49
-2.06341e-48
9.2494e-48
-4.25558e-47
1.86384e-46
-7.80955e-46
3.11488e-45
-1.17654e-44
4.17939e-44
-1.38285e-43
4.2009e-43
-1.14428e-42
2.66969e-42
-4.74332e-42
3.35285e-42
1.82605e-41
-1.05301e-40
3.29468e-40
-6.57373e-40
4.21009e-40
2.78935e-39
-1.33705e-38
3.02678e-38
-1.84235e-38
-1.3486e-37
5.55521e-37
-8.61016e-37
-9.66663e-37
8.14727e-36
-1.59491e-35
-9.44938e-36
1.20569e-34
-2.191e-34
-2.52393e-34
1.81763e-33
-1.94434e-33
-7.23548e-33
2.30387e-32
7.33097e-33
-1.41398e-31
1.31543e-31
6.48829e-31
-1.35176e-30
-2.4535e-30
9.06594e-30
8.1605e-30
-5.19647e-29
-2.77706e-29
2.76981e-28
1.34614e-28
-1.40955e-27
-1.0045e-27
6.72827e-27
8.27472e-27
-2.79801e-26
-6.10861e-26
8.09562e-26
3.70849e-25
3.98935e-26
-1.66267e-24
-2.47948e-24
3.7218e-24
1.70176e-23
1.36889e-23
-4.6883e-23