/*--------------------------------*- C++ -*----------------------------------*\
  =========                 |
  \\      /  F ield         | OpenFOAM: The Open Source CFD Toolbox
   \\    /   O peration     | Website:  https://openfoam.org
    \\  /    A nd           | Version:  13
     \\/     M anipulation  |
\*---------------------------------------------------------------------------*/
FoamFile
{
    format      ascii;
    class       volScalarField;
    location    "6.1";
    object      T;
}
// * * * * * * * * * * * * * * * * * * * * * * * * * * * * * * * * * * * * * //

dimensions      [0 0 0 1 0 0 0];

internalField   nonuniform List<scalar> 
10000
(
1.47601e-60
7.25821e-61
4.2595e-61
2.32709e-61
9.97662e-62
-1.06913e-61
-2.70877e-61
-7.25624e-63
-1.60767e-61
-9.45268e-61
1.9368e-59
6.99046e-59
-2.46343e-58
4.58667e-58
-7.3775e-57
1.42476e-56
2.31323e-55
-2.56621e-54
1.7586e-53
-8.6191e-53
2.9012e-52
-4.67582e-52
-1.62506e-51
1.56008e-50
-5.89452e-50
9.02378e-50
2.78402e-49
-2.09461e-48
4.91444e-48
3.84483e-48
-5.91437e-47
1.37727e-46
1.55778e-46
-1.57304e-45
2.2439e-45
8.20288e-45
-3.29722e-44
-8.46234e-45
2.60378e-43
-2.76522e-43
-1.55224e-42
3.42409e-42
7.88087e-42
-2.79103e-41
-3.80297e-41
1.9117e-40
2.02779e-40
-1.18031e-39
-1.3354e-39
6.62485e-39
1.01613e-38
-3.22793e-38
-7.66569e-38
1.16753e-37
5.10398e-37
-9.47737e-38
-2.70937e-36
-2.88647e-36
9.34692e-36
2.75224e-35
-4.88273e-37
-1.27031e-34
-2.24487e-34
1.33171e-34
1.22418e-33
1.98991e-33
-6.53137e-34
-9.34227e-33
-1.94011e-32
-1.22944e-32
3.90568e-32
1.43032e-31
2.46474e-31
2.06929e-31
-1.79091e-31
-1.07545e-30
-2.47155e-30
-4.09902e-30
-5.47968e-30
-6.11317e-30
-5.71641e-30
-4.37792e-30
-2.52966e-30
-7.48373e-31
5.00278e-31
1.03441e-30
9.68114e-31
5.86681e-31
1.78067e-31
-8.46904e-32
-1.68447e-31
-1.32235e-31
-5.76423e-32
-3.4824e-34
2.26448e-32
2.04637e-32
9.39691e-33
5.89848e-34
-2.89672e-33
-3.26382e-33
7.25871e-61
3.52418e-61
2.13493e-61
1.93067e-61
1.35371e-61
-7.00885e-61
-1.29434e-60
6.25935e-60
1.78522e-59
-3.88817e-59
-1.75939e-58
1.89125e-58
1.75796e-57
2.78019e-57
-1.04683e-56
-2.92159e-56
3.69397e-56
-1.33286e-54
9.0789e-54
-4.08986e-53
1.38711e-52
-2.12222e-52
-8.73004e-52
7.86071e-51
-2.91604e-50
4.24687e-50
1.45277e-49
-1.04744e-48
2.39833e-48
2.10429e-48
-2.96207e-47
6.74825e-47
8.17039e-47
-7.84068e-46
1.08975e-45
4.14603e-45
-1.63189e-44
-4.74161e-45
1.29788e-43
-1.34333e-43
-7.76771e-43
1.68826e-42
3.95671e-42
-1.38195e-41
-1.91272e-41
9.48305e-41
1.01887e-40
-5.85932e-40
-6.68355e-40
3.28912e-39
5.06299e-39
-1.60365e-38
-3.81128e-38
5.81107e-38
2.53602e-37
-4.86157e-38
-1.34814e-36
-1.42443e-36
4.67387e-36
1.36583e-35
-4.67511e-37
-6.34587e-35
-1.10925e-34
6.94318e-35
6.12343e-34
9.81413e-34
-3.63352e-34
-4.70671e-33
-9.63003e-33
-5.78452e-33
2.02921e-32
7.22967e-32
1.22517e-31
9.80006e-32
-1.04729e-31
-5.68287e-31
-1.28605e-30
-2.1202e-30
-2.82637e-30
-3.14937e-30
-2.94533e-30
-2.25988e-30
-1.31312e-30
-3.99104e-31
2.43997e-31
5.22357e-31
4.93234e-31
3.01442e-31
9.38419e-32
-4.07646e-32
-8.46173e-32
-6.71746e-32
-2.97031e-32
-6.05293e-34
1.1255e-32
1.03307e-32
4.80927e-33
3.55143e-34
-1.43546e-33
-1.63664e-33
4.28007e-61
2.22081e-61
5.88994e-62
-2.21453e-61
-1.05549e-61
1.55491e-60
4.70707e-60
1.05107e-59
1.68576e-59
-7.83178e-59
-5.24923e-58
-6.3726e-58
3.80489e-57
1.6029e-56
-6.54997e-58
-1.2487e-55
-2.34771e-55
-7.04079e-55
6.72158e-54
-2.01012e-53
8.34024e-53
-1.09788e-52
-5.14304e-52
4.63533e-51
-1.74364e-50
2.21047e-50
8.56676e-50
-6.08543e-49
1.41222e-48
1.37249e-48
-1.7284e-47
3.90075e-47
4.85336e-47
-4.60518e-46
6.30147e-46
2.46883e-45
-9.47059e-45
-2.93667e-45
7.60014e-44
-7.74766e-44
-4.56573e-43
9.80673e-43
2.32696e-42
-8.05685e-42
-1.1259e-41
5.53479e-41
5.983e-41
-3.42506e-40
-3.92331e-40
1.92222e-39
2.9633e-39
-9.38185e-39
-2.23025e-38
3.39874e-38
1.48179e-37
-2.91945e-38
-7.89164e-37
-8.29553e-37
2.74275e-36
7.97917e-36
-3.5041e-37
-3.72159e-35
-6.46303e-35
4.17764e-35
3.59588e-34
5.71326e-34
-2.26616e-34
-2.77582e-33
-5.62735e-33
-3.26631e-33
1.21833e-32
4.27217e-32
7.16817e-32
5.55918e-32
-6.69657e-32
-3.44645e-31
-7.73057e-31
-1.2702e-30
-1.69051e-30
-1.88215e-30
-1.76025e-30
-1.35189e-30
-7.88536e-31
-2.43534e-31
1.41015e-31
3.08431e-31
2.92844e-31
1.79975e-31
5.68576e-32
-2.33342e-32
-4.97859e-32
-3.97868e-32
-1.7746e-32
-5.16224e-34
6.57796e-33
6.09924e-33
2.86582e-33
2.30654e-34
-8.38159e-34
-9.62882e-34
2.43339e-61
1.90173e-61
-2.73631e-61
-1.64293e-60
2.6274e-61
1.53017e-59
1.92235e-59
-8.80999e-59
-2.05773e-58
4.23862e-58
1.30948e-57
-4.02578e-57
-1.70776e-56
6.91035e-57
1.13234e-55
1.68735e-55
2.74809e-55
8.24964e-55
4.72265e-54
-9.02515e-54
5.25181e-53
-4.30404e-53
-3.39291e-52
2.54578e-51
-7.90818e-51
1.01034e-50
4.06568e-50
-3.07613e-49
7.45313e-49
8.95659e-49
-8.46323e-48
1.96249e-47
2.36913e-47
-2.39026e-46
3.1375e-46
1.29571e-45
-4.73782e-45
-1.64064e-45
3.839e-44
-3.91451e-44
-2.33568e-43
4.92747e-43
1.18165e-42
-4.09634e-42
-5.80067e-42
2.79219e-41
3.03421e-41
-1.73518e-40
-1.98605e-40
9.77578e-40
1.50712e-39
-4.77225e-39
-1.13318e-38
1.73902e-38
7.55446e-38
-1.52884e-38
-4.02769e-37
-4.18691e-37
1.41201e-36
4.06823e-36
-2.41738e-37
-1.90549e-35
-3.27905e-35
2.2055e-35
1.84476e-34
2.9014e-34
-1.23406e-34
-1.42473e-33
-2.8529e-33
-1.57735e-33
6.40403e-33
2.19567e-32
3.62588e-32
2.6813e-32
-3.80484e-32
-1.83444e-31
-4.07083e-31
-6.66062e-31
-8.84614e-31
-9.8515e-31
-9.22562e-31
-7.07866e-31
-4.14898e-31
-1.30704e-31
7.0275e-32
1.58561e-31
1.51759e-31
9.4005e-32
3.01412e-32
-1.13949e-32
-2.54985e-32
-2.05379e-32
-9.25878e-33
-3.85599e-34
3.31942e-33
3.12403e-33
1.4979e-33
1.34771e-34
-4.24221e-34
-4.90772e-34
7.93567e-62
-7.2306e-62
-1.05169e-61
1.17255e-60
5.20924e-60
1.09115e-61
-7.54443e-59
-2.88316e-58
-1.00649e-58
2.83943e-57
8.6863e-57
-5.64289e-57
-9.03103e-56
-1.60474e-55
2.88671e-55
1.76557e-54
3.33229e-54
1.19709e-54
-1.07044e-53
-3.43233e-53
3.18083e-53
-4.91753e-54
-6.42832e-52
1.26786e-51
5.10373e-51
2.92368e-50
2.6695e-50
-2.58197e-49
2.01435e-50
1.05734e-49
-3.79463e-48
1.03188e-47
1.69657e-47
-1.04777e-46
9.09647e-47
3.8785e-46
-2.53221e-45
-1.22457e-45
1.68391e-44
-1.80432e-44
-1.03677e-43
2.29946e-43
5.40841e-43
-1.88655e-42
-2.77092e-42
1.25666e-41
1.49215e-41
-7.48187e-41
-8.68157e-41
4.40329e-40
6.8863e-40
-2.1356e-39
-5.10384e-39
8.35851e-39
3.64995e-38
-3.6276e-39
-1.82778e-37
-1.8303e-37
6.86764e-37
1.88657e-36
-2.89334e-37
-9.12331e-36
-1.50242e-35
1.14412e-35
8.71025e-35
1.33481e-34
-6.14634e-35
-6.56025e-34
-1.28482e-33
-6.26509e-34
3.12588e-33
1.00848e-32
1.57651e-32
1.02795e-32
-2.01439e-32
-8.84744e-32
-1.94468e-31
-3.15295e-31
-4.17635e-31
-4.68881e-31
-4.41359e-31
-3.37974e-31
-1.94654e-31
-6.16656e-32
2.93243e-32
7.33037e-32
7.18961e-32
4.44099e-32
1.40563e-32
-4.83701e-33
-1.1997e-32
-9.75037e-33
-4.42482e-33
-2.28914e-34
1.53097e-33
1.44392e-33
6.97535e-34
7.44461e-35
-1.91199e-34
-2.19493e-34
-3.86071e-61
-1.13289e-60
4.18329e-60
2.26803e-59
-9.74722e-61
-2.3573e-58
-4.92824e-58
6.53326e-58
3.93631e-57
5.02875e-57
4.41479e-57
1.70652e-56
-3.00214e-56
-3.67859e-55
-4.81455e-55
1.75415e-54
3.10618e-54
-1.70113e-53
-7.62025e-53
-1.25385e-52
3.51895e-53
3.10607e-52
-9.47555e-52
-2.87254e-51
1.05766e-50
7.31619e-50
7.83179e-50
-3.80178e-49
-1.04036e-48
-1.61255e-48
-2.69894e-48
9.29859e-48
3.46299e-47
-6.77755e-48
-1.24009e-46
-6.63565e-46
-2.65364e-45
-2.11452e-45
6.71916e-45
-1.92952e-45
-2.902e-44
1.13076e-43
3.43258e-43
-3.53013e-43
-7.11736e-43
5.87312e-42
1.30319e-41
-1.08613e-41
-2.7073e-41
1.12624e-40
1.8393e-40
-7.22421e-40
-1.79591e-39
3.00007e-39
1.49937e-38
6.5478e-39
-4.92009e-38
-4.74126e-38
2.18859e-37
4.83872e-37
-5.1808e-37
-3.3985e-36
-3.73475e-36
7.98107e-36
3.14076e-35
3.40433e-35
-5.03143e-35
-2.70067e-34
-4.61131e-34
-2.16428e-35
1.66826e-33
4.29422e-33
5.34888e-33
1.30464e-33
-1.10764e-32
-3.75029e-32
-7.79844e-32
-1.22389e-31
-1.66705e-31
-1.86113e-31
-1.68652e-31
-1.47739e-31
-6.80377e-32
-2.0385e-32
3.94342e-33
2.81997e-32
3.1143e-32
1.8229e-32
5.63906e-33
-2.12262e-33
-4.92135e-33
-4.30061e-33
-2.18869e-33
-6.4164e-35
9.12046e-34
7.79253e-34
2.09307e-34
2.46561e-35
-7.68268e-35
-1.02771e-34
-8.66378e-61
-9.28584e-61
1.25e-59
4.14556e-59
-6.19559e-59
-5.90745e-58
-5.97918e-58
3.81249e-57
1.05261e-56
-8.51916e-57
-5.62729e-56
9.89299e-56
7.90025e-55
7.07884e-55
-4.10324e-54
-1.2185e-53
-1.72409e-53
-5.26794e-53
-1.49158e-52
-1.49379e-52
2.1254e-52
1.50538e-51
2.78346e-51
-1.05142e-50
-6.2306e-50
-8.59537e-50
1.61888e-49
7.77397e-49
1.05465e-48
-7.05442e-49
-2.28389e-48
7.50498e-48
1.17458e-47
-2.80705e-47
7.50888e-49
-1.91604e-46
-2.47887e-45
-5.61346e-45
3.6008e-45
3.11185e-44
3.49802e-44
1.97043e-44
2.58187e-43
1.00397e-42
2.33918e-42
7.5465e-42
2.03015e-41
2.4505e-41
-5.5997e-42
-1.01862e-40
-2.83992e-40
-1.554e-40
7.11016e-40
-1.45538e-39
-1.54459e-38
-2.52776e-38
1.77284e-38
1.4167e-38
-3.3243e-37
-7.13073e-37
3.95078e-37
3.87229e-36
6.42776e-36
-7.80208e-37
-2.56692e-35
-5.45355e-35
-7.99881e-35
-1.66891e-34
-2.26978e-34
8.20576e-35
8.79508e-34
3.09247e-33
6.86723e-33
6.49352e-33
-1.28254e-33
-5.48739e-33
-5.47166e-35
-1.33818e-32
-5.68303e-32
-4.86425e-32
-2.55251e-32
-7.72603e-32
-1.8685e-32
-1.81745e-33
4.39823e-33
1.24343e-32
3.12985e-33
-2.1934e-35
5.66316e-33
-2.72134e-33
7.40777e-34
-8.03881e-34
-1.86861e-33
-2.48901e-34
7.07559e-34
7.53642e-34
4.34034e-35
-5.59721e-35
-2.49505e-35
-1.15571e-34
1.11855e-60
5.78458e-60
-7.30606e-60
-7.57115e-59
-2.69908e-59
8.67386e-58
2.46273e-57
-6.77288e-58
-1.92073e-56
-6.3833e-56
-1.22885e-55
1.68151e-55
2.00355e-54
3.73061e-54
-7.29916e-54
-3.23494e-53
-8.34173e-54
9.46997e-53
1.70635e-52
3.33928e-52
8.30514e-52
4.60024e-51
2.25714e-50
2.00825e-50
-2.19246e-49
-8.07285e-49
-2.03532e-49
5.24493e-48
1.35247e-47
8.7211e-48
-1.66884e-47
-5.59551e-47
-1.7701e-46
-1.99173e-46
1.47094e-45
6.20608e-45
6.6996e-45
-8.27023e-45
-9.97526e-45
7.8755e-44
1.94916e-43
-2.18919e-43
-1.83886e-42
-2.84964e-42
2.23581e-42
1.21278e-41
-2.58726e-42
-7.21944e-41
-9.56071e-41
5.53851e-42
-1.52592e-40
6.82355e-40
6.64014e-39
4.46937e-39
-5.27009e-38
-1.43775e-37
-1.01397e-37
2.29826e-39
-7.92337e-38
9.05391e-37
5.02487e-36
8.69821e-36
-3.7893e-36
-4.61528e-35
-8.11198e-35
-2.79877e-35
1.74791e-35
-2.38085e-34
-6.53645e-34
-1.29252e-33
-2.3818e-33
9.64741e-34
1.97457e-32
4.0679e-32
3.3049e-32
2.87002e-32
5.5823e-32
1.53587e-32
-7.2383e-32
-1.3942e-31
-2.17359e-31
-1.14851e-31
-1.04525e-31
1.29718e-33
8.8107e-32
5.18117e-32
-3.0869e-32
-3.35763e-32
1.76523e-32
-7.00809e-33
3.8609e-33
2.8399e-34
-1.52276e-33
-7.73806e-34
-2.54559e-33
-1.01521e-33
8.45013e-34
-9.01818e-35
1.25043e-34
1.15265e-34
6.74999e-60
1.85051e-59
-9.13539e-59
-4.7373e-58
2.40308e-58
6.61786e-57
1.39376e-56
-2.10609e-56
-1.32311e-55
-1.9409e-55
-1.78979e-55
-6.90393e-55
-1.05969e-54
3.17101e-54
1.28983e-53
3.80306e-53
2.01922e-52
6.94874e-52
1.19108e-51
9.92979e-52
1.10342e-51
9.65481e-51
6.35022e-50
1.92719e-49
5.56796e-50
-1.24309e-48
-2.537e-48
4.07972e-48
2.32446e-47
1.27136e-47
-1.31101e-46
-3.81535e-46
-3.75439e-46
3.99049e-46
3.65058e-45
1.41211e-44
3.26691e-44
4.21463e-44
7.51997e-45
-6.34231e-44
-3.3548e-44
-7.65447e-43
-7.35534e-42
-2.34199e-41
-3.02669e-41
-2.43926e-41
-1.38145e-40
-4.73183e-40
-4.3205e-40
1.09205e-39
2.79777e-39
1.86926e-39
8.11778e-39
3.89117e-38
5.54451e-38
-1.00376e-37
-5.02174e-37
-2.39385e-37
3.43927e-36
1.10734e-35
8.58242e-36
-2.97584e-35
-9.16372e-35
-7.4584e-35
1.59683e-34
4.97037e-34
3.19873e-34
-6.15804e-34
-1.32842e-33
-2.50413e-33
-6.80427e-33
-1.2432e-32
5.52082e-33
4.7022e-32
2.93296e-32
-6.42255e-32
-1.57855e-31
-3.02595e-31
-3.20621e-31
-6.88875e-31
-1.16794e-30
-3.36982e-31
-3.88827e-31
-6.93545e-32
2.42984e-31
1.95579e-31
4.34108e-32
-1.39307e-32
3.51108e-32
-1.88639e-32
-2.93876e-32
-2.02928e-32
4.81142e-33
1.49657e-33
-9.24716e-33
-6.76535e-33
2.97728e-33
4.24134e-34
2.64962e-34
1.1592e-33
6.24968e-60
4.21779e-59
-1.07973e-58
-1.09832e-57
-1.15471e-57
1.07682e-56
3.84826e-56
1.77961e-56
-1.35488e-55
-3.64368e-55
-1.25716e-54
-5.7098e-54
-1.39129e-53
1.80747e-54
1.09846e-52
2.81775e-52
3.30483e-52
5.82829e-52
1.22748e-51
-3.69641e-52
-6.92276e-51
-2.03329e-50
-4.37721e-51
3.89177e-49
1.76807e-48
1.97e-48
-8.78119e-48
-3.62432e-47
-4.39282e-47
-1.25678e-47
-2.61908e-46
-1.04234e-45
-3.81236e-46
2.86782e-45
-2.06115e-45
-1.31122e-44
5.87496e-44
2.93088e-43
3.69366e-43
-5.74271e-43
-2.91079e-42
-4.43665e-42
-5.08618e-42
-2.3327e-41
-9.56253e-41
-2.67542e-40
-5.09378e-40
-4.62655e-40
2.81059e-40
2.27903e-39
6.14207e-39
3.68486e-39
-1.8783e-38
-7.71862e-39
2.27684e-37
6.36324e-37
3.65706e-37
-5.71957e-37
1.27836e-36
6.23858e-36
-6.14629e-36
-6.8025e-35
-9.696e-35
1.83013e-34
8.18001e-34
1.08741e-33
6.42228e-34
2.06584e-33
7.08016e-33
9.8434e-33
-5.85869e-33
-7.57176e-32
-2.02629e-31
-2.66739e-31
-1.88172e-31
-7.33425e-32
1.00061e-31
5.42304e-31
1.6925e-30
1.9148e-30
1.18281e-30
1.83643e-30
6.94361e-31
-2.11297e-31
-7.85491e-32
-1.88683e-31
1.38153e-32
4.51494e-32
-1.40069e-31
4.76229e-33
-7.29627e-32
-1.74481e-32
4.93344e-32
8.44204e-33
-2.15543e-33
-1.02756e-32
-2.05058e-33
1.46001e-33
-3.97681e-34
1.59221e-33
-2.69309e-60
3.37243e-59
-6.68731e-59
-1.2481e-57
-2.59499e-57
5.6544e-57
3.57367e-56
1.00355e-55
2.83247e-55
3.91911e-55
-1.95553e-54
-1.31154e-53
-2.95721e-53
3.08028e-53
3.35396e-52
5.13522e-52
-9.13639e-52
-3.32781e-51
-1.65512e-51
-1.4714e-51
-3.90684e-50
-2.10724e-49
-6.2305e-49
-4.3264e-49
4.03534e-48
1.20544e-47
-1.59668e-47
-1.56578e-46
-3.02887e-46
1.64252e-47
7.16609e-46
2.39408e-46
-5.18669e-46
1.18144e-45
-2.03808e-44
-1.1112e-43
-1.00727e-43
5.98772e-43
1.77544e-42
-9.30189e-43
-1.18101e-41
-9.48529e-42
4.8475e-41
1.08935e-40
-2.61428e-41
-4.60731e-40
-1.01132e-39
-1.08729e-39
2.07027e-39
1.47724e-38
2.54043e-38
-3.40191e-38
-2.0585e-37
-2.65713e-37
3.31553e-37
1.68697e-36
1.51154e-36
-5.23372e-36
-2.16548e-35
-3.90393e-35
-2.53349e-35
3.27726e-35
1.86048e-34
8.11711e-34
2.27669e-33
3.81886e-33
4.84935e-33
8.22779e-33
1.01552e-32
8.10214e-33
9.96747e-33
-5.48946e-32
-3.07862e-31
-4.08609e-31
1.82851e-31
1.06754e-30
1.87805e-30
3.66578e-30
7.22368e-30
1.11125e-29
1.27836e-29
9.97623e-30
5.11364e-30
1.52577e-31
-4.84e-31
-1.26928e-30
-5.23769e-31
-1.99279e-31
-9.49094e-31
1.45115e-32
-8.33934e-32
8.00596e-32
1.02387e-31
1.93997e-32
7.43631e-32
3.15852e-32
-2.45607e-32
-1.26685e-33
-8.00068e-33
-1.04687e-32
-2.19218e-59
-5.19925e-58
-1.0297e-57
3.88657e-57
2.43659e-56
2.33632e-56
-1.71369e-55
-6.40755e-55
-4.39409e-55
3.51474e-54
1.38249e-53
1.48392e-53
-1.99673e-53
7.26083e-53
6.61189e-52
5.46437e-52
-4.66925e-51
-1.30304e-50
-2.97662e-51
1.6633e-50
-7.83792e-50
-5.31561e-49
-1.95427e-48
-3.66188e-48
1.66615e-48
2.34196e-47
-1.01136e-47
-3.5151e-46
-7.77884e-46
3.86838e-46
4.39894e-45
8.88643e-45
4.16218e-45
-1.52734e-44
-6.22233e-45
-1.16857e-43
-8.61912e-43
-6.18699e-43
3.65538e-42
-1.41186e-42
-2.59625e-41
2.87756e-41
2.37416e-40
2.38082e-40
8.59123e-41
1.15999e-39
-4.60831e-40
-1.52425e-38
-1.15685e-38
9.69582e-38
1.67463e-37
-3.33034e-37
-1.06567e-36
3.78698e-37
4.16343e-36
6.41984e-37
-1.96571e-35
-2.79716e-35
3.17542e-35
8.46662e-35
-1.65572e-34
-8.0618e-34
-6.67284e-34
3.45063e-33
1.38946e-32
2.11995e-32
-3.8183e-33
-8.05522e-32
-1.54711e-31
-3.96099e-34
7.13422e-31
1.8181e-30
2.16637e-30
3.00286e-31
-6.11262e-30
-2.08535e-29
-4.34448e-29
-6.57362e-29
-8.15278e-29
-8.14132e-29
-6.62708e-29
-5.3589e-29
-3.5625e-29
-1.65086e-29
2.79972e-30
1.03678e-29
1.04568e-29
6.92944e-30
1.93896e-30
8.15272e-32
-1.53963e-30
-1.48944e-30
-1.00478e-30
-2.13899e-31
3.3193e-31
3.3375e-31
8.11922e-32
3.22584e-32
-4.31229e-32
-7.2406e-32
-3.92138e-58
-2.0068e-57
-9.23264e-58
2.19689e-56
7.94542e-56
5.10966e-56
-4.62045e-55
-2.20669e-54
-5.96301e-54
-5.58373e-54
2.65366e-53
9.7381e-53
1.27093e-52
3.07419e-52
9.79223e-52
-1.74852e-51
-1.8798e-50
-4.05325e-50
-5.13055e-52
1.15185e-49
-3.34426e-50
-5.85998e-49
-1.77948e-48
-7.59348e-48
-1.42756e-48
8.6783e-49
-4.98988e-47
-4.2078e-47
-1.18875e-45
3.34303e-48
1.44039e-44
1.38011e-45
-1.63726e-44
1.96723e-43
-5.76758e-44
-9.00636e-43
2.55884e-42
-1.17561e-42
-3.4047e-41
2.01311e-41
1.98148e-40
-2.35391e-40
-6.69464e-40
3.32541e-39
5.13257e-39
-2.01123e-38
-2.96369e-38
1.04506e-37
1.40906e-37
-6.16559e-37
-9.7661e-37
3.21119e-36
7.64229e-36
-1.18461e-35
-5.07827e-35
1.38059e-35
2.8044e-34
2.81785e-34
-1.02745e-33
-2.96909e-33
5.10287e-35
1.36085e-32
2.32068e-32
-1.74757e-32
-1.31337e-31
-1.88458e-31
1.3413e-31
1.03824e-30
1.88239e-30
6.71546e-31
-5.09107e-30
-1.55355e-29
-2.36561e-29
-1.18147e-29
4.29564e-29
1.55753e-28
3.24833e-28
5.22193e-28
6.82777e-28
7.63534e-28
7.34553e-28
5.7148e-28
3.45748e-28
1.20753e-28
-3.4783e-29
-1.10769e-28
-1.20025e-28
-7.96913e-29
-2.63377e-29
7.00068e-30
1.88547e-29
1.51039e-29
6.68529e-30
6.20251e-31
-2.16796e-30
-2.24062e-30
-1.21101e-30
-1.23088e-31
2.51016e-31
2.91732e-31
5.5153e-58
1.83146e-57
1.54718e-56
1.45122e-56
-1.38617e-55
-2.81511e-55
1.30973e-54
5.32073e-54
-5.33984e-54
-7.92273e-53
-2.17197e-52
-1.57577e-52
6.19171e-52
1.92757e-51
3.21987e-53
-1.66794e-50
-5.83519e-50
-8.67545e-50
5.05427e-50
2.33726e-49
3.77287e-49
-9.63458e-49
1.8199e-48
2.13916e-47
-6.8705e-47
-6.11381e-47
2.07769e-46
-3.20274e-46
6.73719e-45
4.12474e-45
-5.30073e-44
7.26901e-44
1.10238e-43
-9.91601e-43
2.02264e-42
7.10498e-42
-2.09481e-41
-7.35205e-42
1.75414e-40
-1.79385e-40
-1.04256e-39
2.37947e-39
5.70906e-39
-1.84971e-38
-2.79629e-38
1.24339e-37
1.42901e-37
-7.89473e-37
-9.94371e-37
4.27691e-36
7.13802e-36
-2.06844e-35
-5.2349e-35
7.46079e-35
3.52105e-34
-1.85779e-35
-1.79199e-33
-2.10898e-33
5.8295e-33
1.83767e-32
1.46115e-33
-8.17045e-32
-1.53256e-31
6.35275e-32
7.68694e-31
1.3206e-30
-2.748e-31
-5.92503e-30
-1.29797e-29
-9.47249e-30
2.31347e-29
9.20145e-29
1.63112e-28
1.43428e-28
-9.30879e-29
-6.42846e-28
-1.50451e-27
-2.52845e-27
-3.43717e-27
-3.86843e-27
-3.60128e-27
-2.72322e-27
-1.53217e-27
-4.2697e-28
3.57847e-28
6.88924e-28
6.14768e-28
3.59224e-28
1.09825e-28
-5.81832e-29
-1.09371e-28
-8.58585e-29
-3.65567e-29
1.07594e-30
1.52732e-29
1.31574e-29
5.89635e-30
2.50269e-31
-1.95891e-30
-2.13708e-30
-6.51215e-57
1.77454e-56
4.60502e-56
-1.71481e-55
-1.15508e-54
-1.31853e-54
8.66771e-54
4.05953e-53
5.30458e-53
-1.73128e-52
-9.41231e-52
-1.53233e-51
5.83938e-52
3.64576e-51
-7.43009e-51
-3.82291e-50
-2.0573e-50
1.52403e-49
1.72824e-49
2.27867e-49
-2.68646e-48
3.38466e-48
1.63675e-47
6.04664e-48
9.70943e-47
-9.29655e-46
-8.41385e-47
1.01924e-44
-4.2859e-45
7.89878e-45
9.70924e-44
-5.23009e-43
-1.59332e-43
4.12174e-42
-6.45844e-42
-1.45436e-41
9.21199e-41
1.09546e-41
-5.79976e-40
8.52805e-40
3.38712e-39
-9.34039e-39
-1.78918e-38
6.97044e-38
8.65244e-38
-4.6337e-37
-4.78706e-37
2.80777e-36
3.27629e-36
-1.55427e-35
-2.57913e-35
7.2313e-35
1.94023e-34
-2.17671e-34
-1.1986e-33
-1.1995e-34
5.92081e-33
8.22726e-33
-1.72035e-32
-6.5438e-32
-2.70262e-32
2.49923e-31
5.77693e-31
2.92801e-32
-2.40781e-30
-5.30176e-30
-2.25887e-30
1.5079e-29
4.44558e-29
5.66931e-29
-7.02984e-30
-2.06333e-28
-5.41905e-28
-8.877e-28
-9.62645e-28
-4.52605e-28
7.29152e-28
2.30664e-27
3.70196e-27
4.3036e-27
3.90072e-27
2.69216e-27
9.15414e-28
-6.66517e-28
-1.55971e-27
-1.61137e-27
-1.12666e-27
-4.66781e-28
7.68496e-29
3.16135e-28
3.04164e-28
1.72386e-28
3.74929e-29
-3.76057e-29
-5.14682e-29
-3.20945e-29
-8.55615e-30
4.16458e-30
7.11676e-30
6.26539e-30
1.60697e-56
4.97606e-56
7.0589e-57
-5.68319e-55
-2.02807e-54
-1.15394e-54
1.46513e-53
6.83628e-53
1.74918e-52
2.02016e-52
-4.29634e-52
-2.18948e-51
-4.29512e-51
-9.71995e-51
-1.91949e-50
5.49429e-50
4.65786e-49
1.18524e-48
7.7402e-49
-4.05856e-48
-4.9849e-48
-1.78132e-47
7.84377e-47
-1.58879e-46
-1.50966e-46
8.67818e-46
-5.96372e-45
1.68247e-44
8.82745e-45
-1.51213e-43
5.08663e-43
-8.768e-45
-3.76207e-42
1.069e-41
4.69557e-42
-9.5802e-41
1.48037e-40
4.27631e-40
-1.74497e-39
-3.37459e-40
1.23201e-38
-1.38801e-38
-7.32825e-38
1.48547e-37
3.79384e-37
-1.11652e-36
-1.93168e-36
7.15425e-36
1.06936e-35
-4.14471e-35
-6.75358e-35
2.21372e-34
4.94601e-34
-9.00242e-34
-3.27056e-33
2.09734e-33
1.90989e-32
9.59955e-33
-8.61169e-32
-1.63084e-31
1.91054e-31
1.10479e-30
9.59825e-31
-3.51563e-30
-1.13447e-29
-7.29937e-30
3.50639e-29
1.1266e-28
1.20564e-28
-1.69267e-28
-9.37927e-28
-1.88256e-27
-1.6653e-27
2.29701e-27
1.31637e-26
3.29581e-26
6.05912e-26
9.09525e-26
1.15772e-25
1.26362e-25
1.18432e-25
9.40985e-26
5.9873e-26
2.61912e-26
5.48353e-28
-1.30642e-26
-1.56606e-26
-1.15323e-26
-5.37835e-27
-5.39534e-28
1.77208e-27
2.00545e-27
1.214e-27
3.53394e-28
-1.43026e-28
-2.57356e-28
-1.72029e-28
-5.44849e-29
1.47165e-29
3.18053e-29
2.40297e-55
1.28228e-55
-1.96529e-55
-5.80739e-55
1.33987e-54
5.80916e-54
-1.36561e-53
-1.02512e-52
-2.47484e-54
1.60395e-51
6.01731e-51
6.91579e-51
-1.60266e-50
-6.22047e-50
-1.24586e-51
4.86415e-49
1.52396e-48
1.83431e-48
3.83515e-48
-1.65281e-47
6.47129e-48
-3.97739e-47
-7.3276e-46
2.7434e-45
-8.88125e-45
9.9288e-45
7.91175e-44
-4.11901e-43
5.92865e-43
1.43262e-42
-1.08603e-41
2.06336e-41
4.52037e-41
-2.85399e-40
2.72659e-40
1.70158e-39
-5.50512e-39
-4.08923e-39
4.64012e-38
-3.42209e-38
-2.9339e-37
5.29626e-37
1.55876e-36
-4.56259e-36
-7.74541e-36
3.19321e-35
4.10415e-35
-1.98546e-34
-2.57228e-34
1.11591e-33
1.85676e-33
-5.40375e-33
-1.34129e-32
1.96491e-32
8.76552e-32
-1.82014e-32
-4.67408e-31
-4.68047e-31
1.68072e-30
4.64255e-30
-8.04881e-31
-2.27347e-29
-3.59824e-29
3.42057e-29
2.22564e-28
3.1059e-28
-2.55763e-28
-1.82493e-27
-3.2324e-27
-7.92423e-28
1.00952e-26
2.89365e-26
4.14748e-26
1.49051e-26
-9.48607e-26
-3.20942e-25
-6.56495e-25
-1.03759e-24
-1.35535e-24
-1.49895e-24
-1.40611e-24
-1.09615e-24
-6.65875e-25
-2.43224e-25
6.32873e-26
2.08444e-25
2.14103e-25
1.4086e-25
5.28661e-26
-8.43657e-27
-3.21311e-26
-2.84525e-26
-1.42326e-26
-1.92678e-27
3.79416e-27
4.11956e-27
2.17444e-27
3.67548e-28
-4.66509e-28
-6.07706e-28
-2.5333e-54
-1.35114e-54
-1.33771e-54
3.35028e-55
1.15691e-53
1.59698e-53
-1.33271e-52
-6.84103e-52
-9.56289e-52
3.26863e-51
1.85539e-50
3.31596e-50
-9.61397e-51
-1.22187e-49
4.88023e-50
9.77366e-49
1.30808e-48
4.79212e-48
-2.54441e-47
1.57255e-46
-4.57174e-46
2.60121e-46
2.5818e-45
-2.76263e-44
9.75466e-44
-1.07243e-43
-5.31057e-43
3.41472e-42
-7.56842e-42
-9.07844e-42
9.8661e-41
-2.05653e-40
-3.13953e-40
2.55114e-39
-3.15675e-39
-1.42747e-38
5.10399e-38
2.33999e-38
-4.19132e-37
3.7295e-37
2.56181e-36
-5.0646e-36
-1.33184e-35
4.23446e-35
6.57746e-35
-2.92261e-34
-3.52387e-34
1.80492e-33
2.26965e-33
-1.00573e-32
-1.66176e-32
4.84687e-32
1.21572e-31
-1.7166e-31
-7.9329e-31
1.06703e-31
4.15409e-30
4.54861e-30
-1.42047e-29
-4.2298e-29
7.38956e-31
1.9509e-28
3.41134e-28
-2.18118e-28
-1.88871e-27
-2.97949e-27
1.28402e-27
1.4715e-26
2.93197e-26
1.54875e-26
-6.81227e-26
-2.29189e-25
-3.72131e-25
-2.55148e-25
4.59432e-25
2.03649e-24
4.44557e-24
7.22618e-24
9.57312e-24
1.06481e-23
9.97439e-24
7.69692e-24
4.54254e-24
1.48242e-24
-6.93688e-25
-1.66889e-24
-1.61832e-24
-1.01276e-24
-3.37035e-25
1.1137e-25
2.66471e-25
2.18478e-25
1.00441e-25
5.87925e-27
-3.43509e-26
-3.29942e-26
-1.59559e-26
-1.64394e-27
4.33325e-27
5.10544e-27
1.75963e-53
8.62334e-54
5.31563e-54
7.76108e-54
1.96945e-53
-2.7725e-53
-3.83168e-52
-1.06444e-51
-5.33731e-52
4.48881e-51
1.70364e-50
3.83932e-50
5.09934e-50
2.54483e-50
-1.43661e-49
-1.26219e-49
5.91345e-49
-3.59263e-47
2.09425e-46
-8.937e-46
3.38782e-45
-6.43196e-45
-1.62139e-44
1.60866e-43
-6.1017e-43
1.00167e-42
2.74106e-42
-2.13985e-41
5.06653e-41
3.7546e-41
-5.99142e-40
1.38659e-39
1.58314e-39
-1.57729e-38
2.2122e-38
8.27797e-38
-3.26665e-37
-9.86208e-38
2.58754e-36
-2.60656e-36
-1.55122e-35
3.29197e-35
7.96969e-35
-2.69287e-34
-3.90987e-34
1.84318e-33
2.11203e-33
-1.13228e-32
-1.3806e-32
6.30081e-32
1.02923e-31
-3.02228e-31
-7.59531e-31
1.05336e-30
4.9508e-30
-4.8412e-31
-2.56939e-29
-2.9438e-29
8.53979e-29
2.65491e-28
1.86995e-29
-1.18131e-27
-2.18797e-27
1.03607e-27
1.13702e-26
1.92888e-26
-4.21004e-27
-8.54024e-26
-1.83692e-25
-1.28162e-25
3.37811e-25
1.30778e-24
2.31354e-24
2.0582e-24
-1.33548e-24
-9.4016e-24
-2.20834e-23
-3.69509e-23
-4.96198e-23
-5.54727e-23
-5.18929e-23
-3.96867e-23
-2.28045e-23
-6.55261e-24
4.80123e-24
9.59457e-24
8.89506e-24
5.3386e-24
1.57071e-24
-8.29168e-25
-1.57267e-24
-1.21787e-24
-5.20904e-25
6.97425e-27
2.1435e-25
1.89789e-25
8.54361e-26
3.98597e-27
-2.7501e-26
-3.04525e-26
-8.63174e-53
-4.15457e-53
-1.97374e-53
-1.78439e-54
-2.70804e-53
-1.95428e-52
-2.95124e-52
1.443e-51
6.90001e-51
4.06914e-51
-4.17003e-50
-1.01256e-49
6.64032e-50
4.12643e-49
1.52444e-49
-5.23577e-48
-2.31893e-47
1.19331e-46
-9.96689e-46
4.97297e-45
-1.78221e-44
3.70653e-44
4.06097e-44
-7.03061e-43
3.03082e-42
-5.56768e-42
-9.95164e-42
9.82062e-41
-2.56624e-40
-9.36037e-41
2.71793e-39
-6.9803e-39
-5.62365e-39
7.34334e-38
-1.15517e-37
-3.61343e-37
1.56661e-36
2.21162e-37
-1.20417e-35
1.37034e-35
7.08752e-35
-1.61469e-34
-3.58211e-34
1.29453e-33
1.73914e-33
-8.78857e-33
-9.42186e-33
5.38844e-32
6.2896e-32
-2.99633e-31
-4.78728e-31
1.4349e-30
3.57431e-30
-4.96816e-30
-2.3392e-29
1.83507e-30
1.20865e-28
1.42759e-28
-3.92876e-28
-1.26224e-27
-1.74952e-28
5.45742e-27
1.05968e-26
-3.60905e-27
-5.21736e-26
-9.42193e-26
4.23941e-27
3.77995e-25
8.73922e-25
7.40283e-25
-1.23493e-24
-5.68907e-24
-1.09454e-23
-1.17626e-23
-2.39656e-25
3.03724e-23
8.03554e-23
1.40059e-22
1.9153e-22
2.15664e-22
2.01491e-22
1.52235e-22
8.42865e-23
1.94743e-23
-2.47529e-23
-4.19569e-23
-3.70092e-23
-2.1094e-23
-5.16604e-24
4.49718e-24
7.06678e-24
5.14854e-24
2.01761e-24
-2.1775e-25
-1.01529e-24
-8.30914e-25
-3.45409e-25
7.4843e-27
1.32075e-25
1.38195e-25
2.9017e-52
1.42105e-52
9.1288e-53
2.38528e-53
-1.84018e-52
-2.72335e-52
1.87809e-51
9.76509e-51
1.7505e-50
-1.37235e-50
-1.62064e-49
-4.2563e-49
-3.78402e-49
8.89998e-49
-1.09939e-48
-3.48463e-48
1.08813e-47
-4.63267e-46
3.18151e-45
-1.85728e-44
6.86151e-44
-1.63396e-43
1.59499e-45
2.20049e-42
-1.07147e-41
2.33182e-41
2.02888e-41
-3.26397e-40
9.69759e-40
-6.32641e-41
-8.95933e-39
2.61018e-38
1.07902e-38
-2.49496e-37
4.57199e-37
1.1117e-36
-5.60106e-36
4.56234e-37
4.13194e-35
-5.4952e-35
-2.35831e-34
5.984e-34
1.15952e-33
-4.67725e-33
-5.51282e-33
3.14503e-32
2.99847e-32
-1.92405e-31
-2.0697e-31
1.07137e-30
1.63234e-30
-5.14448e-30
-1.24698e-29
1.78366e-29
8.24934e-29
-6.36932e-30
-4.26457e-28
-5.13879e-28
1.36023e-27
4.49377e-27
9.11248e-28
-1.88981e-26
-3.85058e-26
7.96602e-27
1.79129e-25
3.46449e-25
4.7246e-26
-1.23953e-24
-3.1293e-24
-3.18692e-24
2.88361e-24
1.81681e-23
3.89956e-23
5.05358e-23
2.88721e-23
-4.77649e-23
-1.82652e-22
-3.49416e-22
-4.96193e-22
-5.667e-22
-5.28098e-22
-3.89452e-22
-1.98891e-22
-2.02035e-23
9.65173e-23
1.34402e-22
1.09914e-22
5.73168e-23
8.80521e-24
-1.83696e-23
-2.35098e-23
-1.57037e-23
-5.2905e-24
1.54327e-24
3.60693e-24
2.6697e-24
9.81182e-25
-1.36008e-25
-4.76837e-25
-4.66007e-25
-4.66717e-52
-1.99379e-52
-9.53145e-53
-1.74817e-52
-5.63104e-52
3.45788e-52
7.25342e-51
1.7115e-50
-9.26648e-52
-7.53439e-50
-1.95923e-49
-4.89901e-49
-1.09829e-48
-1.27431e-48
5.98366e-48
-9.2467e-48
2.71444e-47
5.7051e-46
-6.08974e-45
3.52621e-44
-1.69354e-43
5.0401e-43
-6.13827e-43
-3.16486e-42
2.30404e-41
-6.65741e-41
2.57413e-41
6.00905e-40
-2.41726e-39
2.04551e-39
1.6461e-38
-6.46085e-38
2.14218e-38
5.04784e-37
-1.2615e-36
-1.64753e-36
1.28443e-35
-7.38115e-36
-8.63371e-35
1.5798e-34
4.54388e-34
-1.50056e-33
-2.04707e-33
1.11634e-32
8.97738e-33
-7.3696e-32
-4.89676e-32
4.50049e-31
3.77077e-31
-2.5275e-30
-3.32555e-30
1.23197e-29
2.72255e-29
-4.38042e-29
-1.86878e-28
2.42358e-29
9.80587e-28
1.17839e-27
-3.08706e-27
-1.04147e-26
-2.90012e-27
4.23712e-26
9.23465e-26
-1.57988e-27
-3.94565e-25
-8.51534e-25
-3.4973e-25
2.48894e-24
7.41189e-24
9.71232e-24
-5.79017e-25
-3.40904e-23
-9.18946e-23
-1.55527e-22
-1.87028e-22
-1.45157e-22
-1.25119e-23
1.83202e-22
3.71644e-22
4.70751e-22
4.306e-22
2.62678e-22
3.53566e-23
-1.61155e-22
-2.61268e-22
-2.50891e-22
-1.64732e-22
-5.90634e-23
1.96824e-23
5.27965e-23
4.79721e-23
2.56906e-23
4.46657e-24
-6.79052e-24
-8.38544e-24
-5.03703e-24
-1.26474e-24
7.66603e-25
1.13942e-24
9.80613e-25
-1.62561e-51
-8.62284e-52
-5.06221e-52
-4.76998e-52
-8.53078e-52
1.0831e-51
9.76237e-51
8.75428e-51
-5.41844e-50
-1.50135e-49
-5.68269e-50
3.96591e-50
-4.64718e-49
-2.05432e-48
7.16785e-48
9.2637e-47
-4.96153e-46
3.62525e-45
-1.42175e-44
3.95953e-44
-1.35991e-44
-6.45074e-43
3.67713e-42
-1.1501e-41
1.2003e-41
7.6715e-41
-4.3221e-40
8.56238e-40
1.14287e-39
-1.15662e-38
2.36473e-38
3.51738e-38
-2.79197e-37
3.46886e-37
1.44844e-36
-5.25473e-36
-1.95409e-36
3.99917e-35
-3.72721e-35
-2.27445e-34
4.51045e-34
1.10229e-33
-3.43718e-33
-5.1488e-33
2.15434e-32
2.67093e-32
-1.1875e-31
-1.65187e-31
5.68865e-31
1.11009e-30
-2.12162e-30
-6.95216e-30
3.42547e-30
3.49974e-29
2.89784e-29
-1.07408e-28
-2.99503e-28
-1.11977e-28
1.07283e-27
3.12281e-27
2.77839e-27
-9.38858e-27
-4.25324e-26
-6.72778e-26
4.98111e-26
5.159e-25
1.22302e-24
8.99222e-25
-3.46032e-24
-1.48394e-23
-2.97107e-23
-2.68994e-23
4.24859e-23
2.53036e-22
6.81035e-22
1.36003e-21
2.23495e-21
3.14495e-21
3.85784e-21
4.15235e-21
3.91241e-21
3.18443e-21
2.16426e-21
1.11904e-21
2.82475e-22
-2.22038e-22
-4.01137e-22
-3.54342e-22
-2.09912e-22
-6.96202e-23
1.65507e-23
4.51729e-23
3.76201e-23
1.84023e-23
2.96105e-24
-4.03352e-24
-4.58755e-24
-2.49436e-24
-5.52537e-25
1.6163e-25
1.55984e-50
7.85655e-51
4.59899e-51
2.34031e-51
1.68384e-51
3.26787e-51
2.64481e-51
-1.44498e-50
-5.23425e-50
-1.32612e-49
-3.15169e-49
-1.70404e-49
-7.02137e-49
1.85413e-47
-1.76684e-47
-1.18132e-46
3.20974e-45
-2.61671e-44
1.63167e-43
-7.02783e-43
2.18445e-42
-3.23103e-42
-1.16309e-41
9.97087e-41
-3.43498e-40
4.14005e-40
1.94393e-39
-1.16751e-38
2.25414e-38
3.60708e-38
-3.15638e-37
5.7163e-37
1.21799e-36
-7.6566e-36
6.85776e-36
4.66022e-35
-1.36236e-34
-1.2829e-34
1.17722e-33
-5.76228e-34
-7.55135e-33
1.09852e-32
4.162e-32
-9.74417e-32
-2.1848e-31
6.78858e-31
1.20582e-30
-4.11331e-30
-7.42528e-30
2.19455e-29
4.94917e-29
-9.71638e-29
-3.2624e-28
2.77075e-28
1.92896e-27
4.52042e-28
-9.13722e-27
-1.31147e-26
2.6702e-26
9.92944e-26
2.78196e-26
-4.02289e-25
-8.15428e-25
2.51443e-25
3.92373e-24
6.85489e-24