/*--------------------------------*- C++ -*----------------------------------*\
  =========                 |
  \\      /  F ield         | OpenFOAM: The Open Source CFD Toolbox
   \\    /   O peration     | Website:  https://openfoam.org
    \\  /    A nd           | Version:  13
     \\/     M anipulation  |
\*---------------------------------------------------------------------------*/
FoamFile
{
    format      ascii;
    class       volScalarField;
    location    "0.7";
    object      T;
}
// * * * * * * * * * * * * * * * * * * * * * * * * * * * * * * * * * * * * * //

dimensions      [0 0 0 1 0 0 0];

internalField   nonuniform List<scalar> 
10000
(
0
0
0
0
0
0
0
0
0
0
0
0
0
0
0
0
0
0
0
0
0
0
0
0
0
0
0
0
0
0
0
0
0
0
0
0
0
0
0
0
0
0
0
0
0
0
0
0
0
0
0
0
0
0
0
0
0
0
0
0
0
0
0
0
0
0
0
0
0
0
0
0
0
0
0
0
0
0
0
0
0
0
0
0
0
0
0
0
0
0
0
0
0
0
0
0
0
0
0
0
0
0
0
0
0
0
0
0
0
0
0
0
0
0
0
0
0
0
0
0
0
0
0
0
0
0
0
0
0
0
0
0
0
0
0
0
0
0
0
0
0
0
0
0
0
0
0
0
0
0
0
0
0
0
0
0
0
0
0
0
0
0
0
0
0
0
0
0
0
0
0
0
0
0
0
0
0
0
0
0
0
0
0
0
0
0
0
0
0
0
0
0
0
0
0
0
0
0
0
0
0
0
0
0
0
0
0
0
0
0
0
0
0
0
0
0
0
0
0
0
0
0
0
0
0
0
0
0
0
0
0
0
0
0
0
0
0
0
0
0
0
0
0
0
0
0
0
0
0
0
0
0
0
0
0
0
0
0
0
0
0
0
0
0
0
0
0
0
0
0
0
0
0
0
0
0
0
0
0
0
0
0
0
0
0
0
0
0
0
0
0
0
0
0
0
0
0
0
0
0
0
0
0
0
0
0
0
0
0
0
0
0
0
0
0
0
0
0
0
0
0
0
0
0
0
0
0
0
0
0
0
0
0
0
0
0
0
0
0
0
0
0
0
0
0
0
0
0
0
0
0
0
0
0
0
0
0
0
0
0
0
0
0
0
0
0
0
0
0
0
0
0
0
0
0
0
0
0
0
0
0
0
0
0
0
0
0
0
0
0
0
0
0
0
0
0
0
0
0
0
0
0
0
0
0
0
0
0
0
0
0
0
0
0
0
0
0
0
0
0
0
0
0
0
0
0
0
0
0
0
0
0
0
0
0
0
0
0
0
0
0
0
0
0
0
0
0
0
0
0
0
0
0
0
0
0
0
0
0
0
0
0
0
0
0
0
0
0
0
0
0
0
0
0
0
0
0
0
0
0
0
0
0
0
0
0
0
0
0
0
0
0
0
0
0
0
0
0
0
0
0
0
0
0
0
0
0
0
0
0
0
0
0
0
0
0
0
0
0
0
0
0
0
0
0
0
0
0
0
0
0
0
0
0
0
0
0
0
0
0
0
0
0
0
0
0
0
0
0
0
0
0
0
0
0
0
0
0
0
0
0
0
0
0
0
0
0
0
0
0
0
0
0
0
0
0
0
0
0
0
0
0
0
0
0
0
0
0
0
0
0
0
0
0
0
0
0
0
0
0
0
0
0
0
0
0
0
0
0
0
0
0
0
0
0
0
0
0
0
0
0
0
0
0
0
0
0
0
0
0
0
0
0
0
0
0
0
0
0
0
0
0
0
0
0
0
0
0
0
0
0
0
0
0
0
0
0
0
0
0
0
0
0
0
0
0
0
0
0
0
0
0
0
0
0
0
0
0
0
0
0
0
0
0
0
0
0
0
0
0
0
0
0
0
0
0
0
0
0
0
0
0
0
0
0
0
0
0
0
0
0
0
0
0
0
0
0
0
0
0
0
0
0
0
0
0
0
0
0
0
0
0
0
0
0
0
0
0
0
0
0
0
0
0
0
0
0
0
0
0
0
0
0
0
0
0
0
0
0
0
0
0
0
0
0
0
0
0
0
0
0
0
0
0
0
0
0
0
0
0
0
0
0
0
0
0
0
0
0
0
0
0
0
0
0
0
0
0
0
0
0
0
0
0
0
0
0
0
0
0
0
0
0
0
0
0
0
0
0
0
0
0
0
0
0
0
0
0
0
0
0
0
0
0
0
0
0
0
0
0
0
0
0
0
0
0
0
0
0
0
0
0
0
0
0
0
0
0
0
0
0
0
0
0
0
0
0
0
0
0
0
0
0
0
0
0
0
0
0
0
0
0
0
0
0
0
0
0
0
0
0
0
0
0
0
0
0
0
0
0
0
0
0
0
0
0
0
0
0
0
0
0
0
0
0
0
0
0
0
0
0
0
0
0
0
0
0
0
0
0
0
0
0
0
0
0
0
0
0
0
0
0
0
0
0
0
0
0
0
0
0
0
0
0
0
0
0
0
0
0
0
0
0
0
0
0
0
0
0
0
0
0
0
0
0
0
0
0
0
0
0
0
0
0
0
0
0
0
0
0
0
0
0
0
0
0
0
0
0
0
0
0
0
0
0
0
0
0
0
0
0
0
0
0
0
0
0
0
0
0
0
0
0
0
0
0
0
0
0
0
0
0
0
0
0
0
0
0
0
0
0
0
0
0
0
0
0
0
0
0
0
0
0
0
0
0
0
0
0
0
0
0
0
0
0
0
0
0
0
0
0
0
0
0
0
0
0
0
0
0
0
0
0
0
0
0
0
0
0
0
0
0
0
0
0
0
0
0
0
0
0
0
0
0
0
0
0
0
0
0
0
0
0
0
0
0
0
0
0
0
0
0
0
0
0
0
0
0
0
0
0
0
0
0
0
0
0
0
0
0
0
0
0
0
0
0
0
0
0
0
0
0
0
0
0
0
0
0
0
0
0
0
0
0
0
0
0
0
0
0
0
0
0
0
0
0
0
0
0
0
0
0
0
0
0
0
0
0
0
0
0
0
0
0
0
0
0
0
0
0
0
0
0
0
0
0
0
0
0
0
0
0
0
0
0
0
0
0
0
0
0
0
0
0
0
0
0
0
0
0
0
0
0
0
0
0
0
0
0
0
0
0
0
0
0
0
0
0
0
0
0
0
0
0
0
0
0
0
0
0
0
0
0
0
0
0
0
0
0
0
0
0
0
0
0
0
0
0
0
0
0
0
0
0
0
0
0
0
0
0
0
0
0
0
0
0
0
0
0
0
0
0
0
0
0
0
0
0
0
0
0
0
0
0
0
0
0
0
0
0
0
0
0
0
0
0
0
0
0
0
0
0
0
0
0
0
0
0
0
0
0
0
0
0
0
0
0
0
0
0
0
0
0
0
0
0
0
0
0
0
0
0
0
0
0
0
0
0
0
0
0
0
0
0
0
0
0
0
0
0
0
0
0
0
0
0
0
0
0
0
0
0
0
0
0
0
0
0
0
0
0
0
0
0
0
0
0
0
0
0
0
0
0
0
0
0
0
0
0
0
0
0
0
0
0
0
0
0
0
0
0
0
0
0
0
0
0
0
0
0
0
0
0
0
0
0
0
0
0
0
0
0
0
0
0
0
0
0
0
0
0
0
0
0
0
0
0
0
0
0
0
0
0
0
0
0
0
0
0
0
0
0
0
0
0
0
0
0
0
0
0
0
0
0
0
0
0
0
0
0
0
0
0
0
0
0
0
0
0
0
0
0
0
0
0
0
0
0
0
0
0
0
0
0
0
0
0
0
0
0
0
0
0
0
0
0
0
0
0
0
0
0
0
0
0
0
0
0
0
0
0
0
0
0
0
0
0
0
0
0
0
0
0
0
0
0
0
0
0
0
0
0
0
0
0
0
0
0
0
0
0
0
0
0
0
0
0
0
0
0
0
0
0
0
0
0
0
0
0
0
0
0
0
0
0
0
0
0
0
0
0
0
0
0
0
0
0
0
0
0
0
0
0
0
0
0
0
0
0
0
0
0
0
0
0
0
0
0
0
0
0
0
0
0
0
0
0
0
0
0
0
0
0
0
0
0
0
0
0
0
0
0
0
0
0
0
0
0
0
0
0
0
0
0
0
0
0
0
0
0
0
0
0
0
0
0
0
0
0
0
0
0
0
0
0
0
0
0
0
0
0
0
0
0
0
0
0
0
0
0
0
0
0
0
0
0
0
0
0
0
0
0
0
0
0
0
0
0
0
0
0
0
0
0
0
0
0
0
0
0
0
0
0
0
0
0
0
0
0
0
0
0
0
0
0
0
0
0
0
0
0
0
0
0
0
0
0
0
0
0
0
0
0
0
0
0
0
0
0
0
0
0
0
0
0
0
0
0
0
0
0
0
0
0
0
0
0
0
0
0
0
0
0
0
0
0
0
0
0
0
0
0
0
0
0
0
0
0
0
0
0
0
0
0
0
0
0
0
0
0
0
0
0
0
0
0
0
0
0
0
0
0
0
0
0
0
0
0
0
0
0
0
0
0
0
0
0
0
0
0
0
0
0
0
0
0
0
0
0
0
0
0
0
0
0
0
0
0
0
0
0
0
0
0
0
0
0
0
0
0
0
0
0
0
0
0
0
0
0
0
0
0
0
0
0
0
0
0
0
0
0
0
0
0
0
0
0
0
0
0
0
0
0
0
0
0
0
0
0
0
0
0
0
0
0
0
0
0
0
0
0
0
0
0
0
0
0
0
0
0
0
0
0
0
0
0
0
0
0
0
0
0
0
0
0
0
0
0
0
0
0
0
0
0
0
0
0
0
0
0
0
0
0
0
0
0
0
0
0
0
0
0
0
0
0
0
0
0
0
0
0
0
0
0
0
0
0
0
0
0
0
0
0
0
0
0
0
0
0
0
0
0
0
0
0
0
0
0
0
0
0
0
0
0
0
0
0
0
0
0
0
0
0
0
0
0
0
0
0
0
0
0
0
0
0
0
0
0
0
0
0
0
0
0
0
0
0
0
0
0
0
0
0
0
0
0
0
0
0
0
0
0
0
0
0
0
0
0
0
0
0
0
0
0
0
0
0
0
0
0
0
0
0
0
0
0
0
0
0
0
0
0
0
0
0
0
0
0
0
0
0
0
0
0
0
0
0
0
0
0
0
0
0
0
0
0
0
0
0
0
0
0
0
0
0
0
0
0
0
0
0
0
0
0
0
0
0
0
0
0
0
0
0
0
0
0
0
0
0
0
0
0
0
0
0
0
0
0
0
0
0
0
0
0
0
0
0
0
0
0
0
0
0
0
0
0
0
0
0
0
0
0
0
0
0
0
0
0
0
0
0
0
0
0
0
0
0
0
0
0
0
0
0
0
0
0
0
0
0
0
0
0
0
0
0
0
0
0
0
0
0
0
0
0
0
0
0
0
0
0
0
0
0
0
0
0
0
0
0
0
0
0
0
0
0
0
0
0
0
0
0
0
0
0
0
0
0
0
0
0
0
0
0
0
0
0
0
0
0
0
0
0
0
0
0
0
0
0
0
0
0
0
0
0
0
0
0
0
0
0
0
0
0
0
0
0
0
0
0
0
0
0
0
0
0
0
0
0
0
0
0
0
0
0
0
0
0
0
0
0
0
0
0
0
0
0
0
0
0
0
0
0
0
0
0
0
0
0
0
0
0
0
0
0
0
0
0
0
0
0
0
0
0
0
0
0
0
0
0
0
0
0
0
0
0
0
0
0
0
0
0
0
0
0
0
0
0
0
0
0
0
0
0
0
0
0
0
0
0
0
0
0
0
0
0
0
0
0
0
0
0
0
0
0
0
0
0
0
0
0
0
0
0
0
0
0
0
0
0
0
0
0
0
0
0
0
0
0
0
0
0
9.41689e-321
-1.77938e-319
1.2198e-319
5.75537e-320
6.1857e-321
-1.01382e-320
-3.5968e-321
-4.11952e-320
8.25485e-320
-9.8744e-320
1.84188e-320
2.85125e-320
8.409e-321
2.42092e-322
-3.57704e-321
5.994e-320
-3.96092e-320
-1.51085e-320
-1.14129e-321
0
4.34778e-322
0
0
0
0
0
0
0
0
0
0
0
0
0
0
0
0
0
0
0
0
0
0
0
0
0
0
0
0
0
0
0
0
0
0
0
0
0
0
0
0
0
0
0
0
0
0
0
0
0
0
0
0
0
0
0
0
0
1.01283e-321
-2.09039e-320
1.51293e-319
-3.00565e-318
1.70513e-317
2.21873e-316
-7.74627e-315
6.84288e-314
-1.18149e-312
1.49208e-312
-1.19385e-311
3.23826e-312
6.51408e-312
4.47395e-312
-5.26827e-311
9.18831e-310
-9.05981e-309
9.00288e-308
-1.05143e-306
9.39039e-306
-2.53025e-305
-3.84088e-304
7.99993e-304
-2.97104e-304
-1.15406e-304
9.37743e-307
1.11314e-305
1.0493e-306
6.10722e-306
-1.00384e-304
8.23394e-305
-2.62352e-305
-1.96603e-305
6.53826e-304
-4.81505e-304
-2.89127e-304
5.42507e-305
9.83575e-305
3.60268e-305
-6.69328e-306
-7.30636e-306
-2.10656e-306
1.22479e-306
1.81896e-306
-7.35173e-307
-9.40637e-308
1.36795e-307
1.02852e-307
3.0874e-308
-1.49648e-309
-4.85544e-309
-1.48515e-309
5.69973e-310
3.42542e-310
5.61478e-311
-1.93652e-311
-1.02044e-311
-3.59037e-312
1.82401e-312
7.33755e-313
-6.66108e-314
-9.34887e-314
-5.67261e-315
8.05535e-315
1.75782e-315
-1.20977e-316
-1.19685e-316
-8.35047e-318
-8.69819e-318
2.95917e-318
1.17937e-317
0
0
0
0
0
0
0
0
0
0
0
0
0
0
0
0
0
0
1.29939e-321
-6.39222e-320
2.16092e-318
-5.92816e-317
1.4311e-315
-3.29159e-314
7.24769e-313
-1.51632e-311
3.65219e-310
-5.17321e-309
7.66362e-308
-1.69087e-306
1.74716e-305
-3.57458e-304
5.1322e-303
-6.05524e-302
3.55123e-301
8.83286e-300
-1.69752e-298
2.1556e-297
-1.845e-296
1.10763e-296
9.5016e-297
-8.21589e-296
1.35443e-294
-8.58652e-295
-6.28753e-295
3.70727e-294
-4.49068e-293
6.79314e-292
-1.56421e-291
-1.09227e-289
1.22886e-288
-9.17995e-289
-2.51133e-289
2.31967e-290
2.65225e-290
3.10797e-291
1.1151e-290
-2.6973e-289
1.92219e-289
6.40534e-290
-2.91772e-290
1.42763e-288
-1.31984e-288
-2.88663e-289
1.37509e-289
7.4708e-290
6.8183e-291
-1.57986e-290
3.48975e-291
2.17593e-291
8.66706e-292
3.07991e-292
-1.32698e-291
8.0751e-292
3.40817e-292
5.93571e-293
9.92404e-294
-1.19382e-293
-6.34687e-294
-4.9665e-295
5.64079e-295
2.17e-295
-4.16233e-296
-2.61036e-296
-6.97209e-297
-1.76504e-297
4.19925e-297
-5.43107e-298
-3.33445e-298
-8.93965e-299
1.99785e-299
9.07913e-300
6.63206e-301
-3.75058e-301
-1.03097e-301
3.1886e-303
4.66806e-303
-1.15018e-302
3.62914e-302
-1.46978e-302
0
0
0
0
0
1.91697e-321
-9.42381e-320
1.48972e-318
-4.92861e-317
8.26546e-316
-2.653e-314
3.56921e-313
-1.09234e-311
3.40806e-310
-4.5628e-310
5.58109e-309
-2.76244e-309
-5.21422e-308
1.39849e-306
-3.73842e-305
9.77503e-304
1.7178e-302
-4.85413e-301
1.24385e-299
-3.11259e-298
7.59599e-297
-1.94666e-295
4.49075e-294
-1.00636e-292
2.19472e-291
-4.65367e-290
2.56055e-289
-4.61482e-288
8.99513e-287
-1.69582e-285
3.09379e-284
8.91303e-284
-1.93019e-282
3.08871e-281
-1.21511e-281
-2.25245e-281
1.43436e-280
-2.3085e-279
3.50093e-278
-2.13722e-278
-1.35421e-278
3.05877e-278
-4.41707e-278
-4.86225e-276
1.142e-274
-1.22514e-273
3.74703e-273
5.65321e-272
-3.6161e-272
-1.97737e-272
-4.08317e-273
3.28983e-274
4.73937e-274
-5.70634e-274
1.20289e-272
-8.11465e-273
-3.29296e-273
-2.62125e-274
5.99677e-274
-2.97115e-274
1.1311e-274
-1.93647e-274
2.13925e-275
1.59566e-275
6.21491e-276
-9.06512e-276
4.05612e-276
2.12381e-276
4.62894e-277
1.16081e-278
-7.0923e-280
-2.79558e-278
-6.77323e-279
1.4403e-280
4.41894e-280
1.95656e-280
-8.65977e-281
-4.11135e-281
-5.66734e-282
9.90373e-283
5.65779e-282
-3.50184e-282
-1.16362e-282
-8.70234e-284
4.04956e-284
1.03586e-284
2.87993e-284
-1.72294e-284
-8.94087e-285
-1.47027e-285
2.06423e-286
5.05721e-287
1.31523e-286
-3.1641e-288
-8.15513e-288
3.01163e-313
-9.60826e-312
2.83811e-310
-8.87057e-309
2.67478e-307
-7.65544e-306
2.03995e-304
-4.86264e-303
9.29467e-302
-3.00243e-300
5.64667e-299
-1.75909e-297
5.48374e-296
-1.12325e-294
1.71602e-293
-1.86677e-293
1.57876e-292
-4.62097e-291
-1.83137e-291
2.35645e-289
-4.74791e-288
1.19963e-286
-2.99179e-285
5.01884e-284
-6.32748e-283
1.57902e-282
-2.3711e-281
-5.86782e-279
1.32213e-277
-2.78573e-276
7.90874e-275
-1.59433e-273
3.97105e-272
-6.33648e-271
6.65496e-270
-7.14466e-269
1.18235e-267
-7.51056e-267
5.21608e-266
1.49883e-266
-7.45338e-265
1.09213e-263
7.23357e-263
-5.49831e-263
-2.41366e-263
-3.7429e-264
-2.16025e-266
-1.0328e-262
2.84922e-261
-5.40282e-260
8.39101e-259
-1.11314e-257
7.2779e-257
-1.18304e-256
-3.79668e-258
3.40079e-257
1.95597e-257
3.07226e-257
3.7326e-259
-1.85282e-257
-6.46447e-258
-4.91311e-259
-3.83646e-259
9.8853e-259
3.27163e-259
-2.40205e-259
-1.76395e-259
-5.77193e-260
1.11653e-260
-1.02984e-261
1.23505e-260
4.52217e-261
1.15619e-261
-2.28436e-262
-1.65139e-262
-5.20542e-263
-3.97968e-264
5.03954e-264
2.26942e-264
2.56454e-265
-1.66184e-265
-6.6732e-266
1.54186e-265
-9.01113e-266
-5.21486e-266
-1.02142e-266
8.27212e-268
9.92493e-268
2.05365e-268
-2.3201e-268
-6.55467e-269
-2.85256e-269
-5.16426e-269
-1.32333e-269
3.19997e-270
2.70394e-270
5.00237e-271
-1.80307e-271
-9.2239e-272
1.13749e-272
-5.24604e-299
7.98584e-297
-1.57522e-295
5.5211e-294
-1.94471e-292
6.73611e-291
-2.29409e-289
7.67948e-288
-2.52607e-286
4.57351e-285
-1.42144e-283
4.42851e-282
-6.23966e-281
1.81126e-279
-5.32799e-278
1.53599e-276
-1.99343e-275
1.48639e-275
9.66302e-276
-1.63241e-274
4.18038e-273
-1.04597e-271
2.55662e-270
-6.10158e-269
1.42107e-267
-3.22811e-266
7.14811e-265
-1.54202e-263
1.26659e-262
-2.49133e-261
5.06428e-260
-1.00056e-258
-1.35598e-257
2.70539e-256
-4.76013e-255
8.09671e-254
-1.32717e-252
6.34076e-252
-8.43009e-251
-3.03383e-250
5.6978e-249
-2.58269e-248
-1.26351e-247
1.98428e-246
-2.88725e-246
7.74607e-246
-3.23502e-245
-4.88537e-244
2.92839e-244
2.13551e-244
-4.69041e-244
6.03586e-243
-5.86418e-242
2.47316e-242
8.2076e-242
1.67767e-243
-7.9913e-243
-3.43832e-242
-2.10968e-242
-2.0218e-242
1.74636e-242
9.45593e-243
2.00914e-243
-4.38212e-245
-4.45835e-244
-1.42105e-244
-5.98795e-245
2.52164e-245
-7.98223e-248
1.78848e-245
6.46278e-246
7.58853e-247
-2.97877e-247
-1.09737e-247
-2.58165e-248
1.29439e-249
3.1743e-249
8.90409e-250
-3.33217e-251
-9.02517e-251
-2.03849e-251
-1.55962e-251
1.58054e-250
-5.71119e-251
-1.55029e-251
-6.01255e-251
-1.06813e-251
4.11798e-253
3.3657e-252
6.01342e-253
-8.78671e-254
-5.2615e-254
-1.19628e-254
8.2622e-255
2.82439e-255
1.47263e-256
-1.35134e-256
-3.65427e-257
3.60539e-257
-2.61424e-257
7.07189e-283
-1.55765e-281
4.10864e-280
-4.6491e-279
-1.82755e-277
1.50607e-275
-5.10629e-274
1.53933e-272
-4.04073e-271
1.27394e-269
-3.02038e-268
8.21735e-267
-2.18005e-265
4.76584e-264
-1.12678e-262
2.64076e-261
-5.82902e-260
9.81584e-259
-1.01988e-257
1.54886e-256
-2.95335e-255
5.14109e-254
-7.19547e-253
-7.28555e-252
7.91732e-252
8.48337e-251
2.60591e-250
-2.22048e-248
8.04212e-247
-1.45453e-245
2.39564e-244
-3.69035e-243
6.7516e-242
-3.36079e-241
5.32545e-240
5.13512e-239
-1.64223e-237
2.55325e-236
-1.68179e-235
4.26042e-235
6.49843e-234
-5.04765e-233
9.45225e-233
1.27626e-231
-1.91734e-231
6.76705e-231
-9.24322e-230
-6.04149e-229
3.76415e-227
-5.97418e-227
-2.14439e-227
9.00911e-227
-4.58415e-227
-7.23765e-227
2.32007e-227
1.727e-227
3.38259e-227
2.26569e-227
-5.05494e-228
-1.30654e-227
-6.42897e-228
-7.09996e-229
1.58111e-229
3.34682e-229
1.28178e-229
1.27558e-229
-3.48643e-230
-1.08527e-230
-2.69754e-230
-6.76454e-231
-1.13646e-231
-9.73337e-232
-1.70534e-232
3.51451e-232
1.28675e-232
-2.09795e-233
-1.36309e-233
5.22655e-233
1.80906e-233
-1.92822e-233
-1.17005e-233
-6.86947e-234
-4.31257e-236
3.9115e-235
1.25093e-235
7.846e-237
-1.93082e-236
-5.87e-237
-3.04559e-238
3.17858e-238
6.426e-239
4.01183e-239
-1.352e-239
-7.3229e-240
-7.52171e-241
1.17241e-240
3.45988e-241
-9.33627e-242
-8.25069e-242
-4.23562e-243
-1.63704e-267
3.15349e-266
-1.09166e-264
3.77797e-263
-9.63854e-262
-7.28749e-263
3.13392e-259
-1.03461e-257
3.27835e-256
-1.06533e-254
2.10318e-253
-6.20693e-252
1.82395e-250
-5.25331e-249
1.17521e-247
-3.22348e-246
6.58658e-245
-1.72682e-243
2.18992e-242
-2.01612e-241
4.72491e-240
-1.14118e-238
2.68843e-237
3.99489e-236
-2.62599e-236
-1.73288e-235
3.6175e-234
-7.75502e-233
-4.31082e-232
9.92775e-231
-1.88382e-229
3.47449e-228
-1.96261e-226
1.28515e-225
-1.07349e-224
1.68237e-223
2.88295e-222
-4.63311e-221
1.98093e-220
-2.35701e-219
-1.0835e-218
1.22857e-217
-4.82837e-217
3.31466e-216
2.00819e-216
-3.48065e-216
-3.59696e-214
7.00459e-213
-5.97983e-212
1.99546e-212
3.38309e-212
-2.61005e-211
9.16335e-212
1.24853e-211
3.38027e-212
5.61968e-212
5.64633e-213
-2.93664e-212
-1.91904e-212
-4.95508e-213
-1.59734e-214
1.25799e-213
4.48824e-214
3.2521e-214
1.01524e-214
-1.29382e-214
-1.08312e-217
-6.56978e-215
-2.21999e-215
-5.69114e-216
-1.02885e-216
1.00067e-216
5.72761e-217
5.17891e-219
-3.5721e-218
9.43298e-218
8.88746e-218
-5.12745e-218
-1.02505e-217
-3.04702e-218
-5.60434e-219
3.67802e-219
9.39006e-220
6.86905e-221
-4.21476e-221
-1.77289e-221
-2.11158e-222
3.56014e-223
1.30406e-223
1.02518e-224
4.51983e-224
-3.49213e-224
-1.86905e-224
3.50918e-226
2.232e-225
-8.82834e-227
-1.99888e-226
-7.72087e-227
9.41936e-228
6.62275e-228
-4.58784e-252
1.19654e-250
-2.71631e-249
7.23992e-248
-2.40454e-246
6.40164e-245
-1.5749e-243
1.92239e-242
-1.02341e-241
-2.59695e-239
1.23044e-237
-2.38568e-236
3.13428e-235
-6.92044e-234
2.44186e-232
-4.81114e-231
7.47033e-230
-1.71305e-228
7.53106e-227
-1.07188e-225
2.13286e-224
-4.19727e-223
1.14529e-221
-2.13079e-220
4.6405e-219
-6.34711e-218
5.35614e-217
-4.60683e-217
1.87849e-214
-1.8136e-214
-3.56872e-213
3.02144e-212
-4.90696e-211
-2.07514e-210
7.86366e-209
-1.24209e-207
7.71598e-207
-1.03388e-205
1.4206e-204
-9.19911e-204
-3.86003e-204
1.16683e-202
-4.26987e-202
4.36361e-201
4.92548e-201
-8.14235e-200
7.63461e-199
-6.36435e-198
4.29157e-197
-6.79402e-197
-1.55165e-196
3.85789e-196
-6.48764e-197
-1.26328e-196
-4.72937e-197
1.33075e-197
1.83938e-197
7.3252e-198
6.62841e-199
-5.58473e-199
-1.49203e-198
2.03879e-198
-1.11406e-198
-2.50566e-199
1.64884e-199
-5.0338e-200
1.67161e-199
-2.67666e-200
4.61698e-201
1.20186e-201
-2.24424e-201
7.25612e-202
4.61486e-202
-4.4588e-203
-1.46706e-202
3.41217e-202
-5.01847e-202
1.20867e-202
7.45973e-203
3.56362e-204
-1.19098e-203
-1.81648e-204
-3.19622e-205
-1.77578e-207
-3.04254e-206
-2.72714e-206
-1.56755e-207
5.04613e-208
-3.46372e-208
-1.29996e-209
7.08236e-209
7.01653e-210
-1.00001e-209
-1.76757e-210
1.82601e-210
9.51634e-211
9.85345e-212
-4.35774e-212
-1.86439e-212
-6.18478e-214
-5.17565e-237
1.57765e-235
-4.23462e-234
1.40552e-232
-3.36995e-231
1.07642e-229
-3.40904e-228
1.05976e-226
-3.23283e-225
9.67393e-224
-2.8386e-222
8.16427e-221
3.64927e-220
-1.22166e-218
-4.13247e-217
1.15204e-215
-4.08115e-215
7.22431e-213
-1.8346e-211
8.79434e-211
-1.79544e-209
-4.21667e-208
1.00732e-206
-6.6032e-207
-7.88961e-204
1.68576e-202
-2.19402e-201
4.182e-200
-7.89571e-199
9.86271e-199
-7.91434e-198
1.38663e-196
-2.29217e-195
-8.60159e-195
1.63819e-193
-2.43224e-192
3.48626e-191
-3.24102e-190
2.12472e-189
-2.54469e-188
-2.44199e-189
2.138e-187
-1.13981e-186
1.17893e-185
-1.20315e-184
3.05449e-184
-8.9182e-184
1.02402e-182
-2.53083e-182
-3.76636e-182
4.63749e-181
-4.68428e-181
5.86894e-182
-1.90869e-182
4.49445e-183
1.90467e-182
-6.48554e-183
-4.52686e-184
-1.58566e-183
2.61928e-183
3.41829e-185
-6.84698e-183
3.20624e-183
3.61874e-183
1.2794e-183
-1.24114e-184
-2.22882e-184
-8.98792e-185
-1.51027e-186
1.02019e-185
5.12494e-186
-1.14453e-189
-4.61718e-187
-1.57004e-187
6.28601e-188
-8.99782e-187
8.38436e-187
1.21799e-187
-8.17722e-188
-3.06153e-188
1.21164e-189
-3.1596e-189
3.75436e-190
-1.13908e-190
-3.26266e-192
1.34771e-191
-5.04189e-192
2.06287e-192
8.71669e-193
5.4603e-194
2.14359e-194
4.10259e-194
-6.82522e-195
-6.60413e-196
1.83637e-197
1.28958e-196
6.05358e-197
4.13618e-198
2.43137e-198
1.53173e-200
8.48782e-222
-2.5364e-220
8.46694e-219
-2.80331e-217
8.07256e-216
-3.2689e-214
1.02173e-212
-3.11524e-211
1.24222e-209
-2.68577e-208
1.05711e-206
-3.00127e-205
4.53104e-204
-1.67224e-202
3.32733e-201
-5.78626e-200
1.44033e-198
-2.19788e-197
7.97753e-196
-1.34468e-194
1.87959e-193
-4.11449e-192
4.79049e-191
-1.77143e-189
2.45947e-188
-2.66476e-187
5.02686e-186
-3.89567e-185
1.51498e-183
-1.56448e-182
1.00564e-181
5.49656e-181
-1.01672e-179
1.55767e-178
7.26068e-179
-2.58742e-177
3.49216e-176
-4.59521e-175
5.77277e-174
-6.90691e-173
2.46574e-172
-2.70027e-172
1.90952e-171
-1.98768e-170
1.85322e-169
-1.47786e-169
4.80183e-169
-2.53265e-168
-2.57334e-168
2.28727e-166
-8.99308e-166
3.04411e-166
3.04244e-166
1.11127e-166
-8.9954e-167
-4.60227e-167
5.6356e-167
3.87079e-167
1.04154e-167
-5.2524e-168
1.80222e-168
-7.40996e-168
-3.28825e-168
-3.98467e-169
2.73459e-169
1.64108e-169
2.98703e-170
-9.2364e-171
-7.29367e-171
-1.48826e-171
-2.30081e-171
3.05387e-170
-2.93936e-170
-1.71648e-172
-1.46003e-171
1.94857e-171
9.35787e-172
2.42504e-172
5.47003e-173
-2.31596e-173
-1.73754e-173
-4.12904e-174
9.17518e-175
2.77556e-175
6.65437e-176
-9.6571e-177
-1.6885e-176
-4.91194e-177
-4.97608e-178
3.81896e-178
1.32054e-178
-3.26125e-180
-1.24075e-179
7.26712e-181
4.57207e-181
9.98114e-182
-8.15439e-183
-9.66958e-183
-2.37351e-183
5.18712e-184
6.26297e-207
-1.82826e-205
-5.63503e-205
2.17948e-202
-1.62536e-200
7.02445e-199
-2.15657e-197
6.99114e-196
-2.21302e-194
6.59928e-193
-1.70132e-191
4.21879e-190
-1.07822e-188
2.54441e-187
-6.12739e-186
1.43731e-184
-3.05639e-183
6.27543e-182
-1.24606e-180
2.61544e-179
-5.32863e-178
9.39404e-177
-1.77316e-175
2.81858e-174
-4.88059e-173
8.08344e-172
-1.25964e-170
1.89765e-169
-2.65378e-168
3.57567e-167
-4.74066e-166
5.74942e-165
-7.01071e-164
5.34913e-163
-5.26122e-162
4.39687e-161
-4.11355e-160
3.35113e-159
-1.88712e-158
1.21162e-157
-4.76353e-157
3.05013e-156
-1.84338e-155
6.64469e-155
-3.22349e-154
1.79434e-153
-7.39106e-153
9.19988e-153
5.40382e-152
-5.24211e-151
1.34947e-150
-5.94751e-151
-4.55598e-151
-2.23025e-152
1.11522e-151
1.04387e-151
2.8065e-152
-2.26019e-152
-5.35719e-154
-1.70047e-152
-1.82021e-152
-4.38731e-153
-3.38963e-154
8.00783e-153
3.20828e-153
-1.24021e-154
-1.64568e-153
-1.29118e-153
4.47953e-154
5.17812e-154
1.04408e-154
-5.7192e-155
-4.51613e-155
-7.4999e-156
4.30268e-156
2.76019e-156
5.35462e-157
-9.11031e-158
-1.04259e-157
-2.85079e-158
-5.54505e-160
2.301e-159
9.3324e-160
1.33063e-160
-3.43045e-161
-2.75326e-161
-5.703e-162
9.78402e-163
7.32651e-163
1.31662e-163
-6.2281e-164
5.06861e-165
-1.00094e-164
-2.83819e-165
-2.84515e-166
4.73003e-167
6.21665e-167
1.03642e-167
-3.54532e-168
-1.07405e-168
-1.03164e-190
7.36234e-190
-2.17961e-188
6.88994e-187
-2.13667e-185
2.16951e-184
-6.12016e-183
1.79187e-181
-5.13959e-180
-1.77972e-178
5.16455e-177
-1.27607e-175
3.35852e-174
-9.45737e-173
2.39231e-171
-5.40673e-170
1.17961e-168
-2.48485e-167
5.0374e-166
-1.11974e-164
2.43471e-163
-4.5031e-162
9.21856e-161
-1.57693e-159
3.04213e-158
-5.72988e-157
8.68168e-156
-1.52125e-154
2.06428e-153
-2.48711e-152
3.89981e-151
-3.83269e-150
5.51008e-149
-4.53594e-148
5.94893e-147
-3.2666e-146
3.77984e-145
-4.47078e-144
1.82019e-143
-1.75916e-142
3.22808e-142
-2.35869e-141
2.14784e-140
-4.5361e-140
1.41586e-139
-9.62626e-139
5.62928e-138
1.0662e-138
-4.91326e-137
2.61718e-136
-4.99702e-136
4.96524e-137
2.39351e-136
7.74976e-138
3.225e-137
-9.57375e-139
-1.55997e-137
1.29364e-137
-3.57925e-137
-1.58468e-137
9.73451e-139
3.54471e-138
1.01892e-137
-3.03169e-138
-3.00891e-138
-2.51545e-138
4.23122e-140
1.01065e-138
5.05691e-139
-6.69817e-140
-9.06323e-140
-3.35942e-140
1.24951e-142
4.83535e-141
1.66951e-141
1.08455e-142
-1.38332e-142
-5.58176e-143
-8.40455e-144
1.31474e-144
1.34965e-144
4.48735e-145
3.12379e-146
-2.22737e-146
-1.00249e-146
-1.20687e-147
8.22102e-148
3.57844e-148
2.97513e-149
-3.15797e-149
1.94276e-149
-1.79949e-149
-8.04499e-150
-9.9769e-151
2.70389e-151
1.18187e-151
8.47727e-153
-4.67562e-153
-1.1816e-153
9.68195e-155
-2.51036e-175
7.05261e-174
9.96077e-173
-3.35675e-171
-9.75479e-170
3.07637e-168
-9.00219e-167
2.58276e-165
-7.25955e-164
-3.6611e-164
2.62266e-162
-6.88244e-161
1.77552e-159
-4.47721e-158
1.10296e-156
-2.65304e-155
6.22735e-154
-1.42551e-152
3.18027e-151
-6.91018e-150
1.46127e-148
-3.00511e-147
6.00515e-146
-1.16506e-144
2.1925e-143
-3.99827e-142
7.05818e-141
-1.2048e-139
1.98617e-138
-3.15816e-137
4.83677e-136
-5.29049e-135
7.36377e-134
-9.98493e-133
1.00499e-131
-9.18775e-131
6.61003e-130
-7.16821e-129
3.4786e-128
-3.25597e-127
5.30835e-127
-3.51335e-126
2.95486e-125
-3.46034e-125
1.76662e-124
-1.14407e-123
5.71778e-123
-4.4994e-123
6.45877e-122
-3.04286e-121
4.35756e-121
1.72085e-121
-2.1312e-121
-1.68759e-121
-4.00728e-122
2.37054e-122
1.75821e-122
7.92276e-122
-3.03288e-122
-3.14226e-122
-3.47628e-122
1.08845e-122
1.30629e-122
9.07282e-123
7.57111e-124
-2.62774e-123
-1.6503e-123
-2.72222e-124
1.9867e-124
1.25632e-124
2.17391e-125
-3.57985e-126
-2.99607e-126
-6.31916e-127
5.39566e-128
7.16739e-128
2.1188e-128
2.11359e-129
-1.04628e-129
-6.84889e-130
-1.90148e-130
-1.11909e-132
2.14936e-131
7.88565e-132
3.62179e-133
-6.75819e-133
-2.29965e-133
-1.29177e-135
1.99637e-134
1.76338e-135
2.9827e-134
1.59618e-133
-3.25641e-133
-5.57561e-134
1.7872e-133
2.52872e-134
-7.18536e-135
-3.69573e-135
5.05046e-136
3.12151e-136
-3.13997e-159
7.26033e-158
-1.49773e-156
4.49618e-155
-1.1335e-153
3.05042e-152
-8.04259e-151
1.86908e-149
-4.58198e-148
1.08726e-146
-2.85325e-145
5.46083e-144
-8.67697e-143
2.09568e-141
-2.21304e-140
4.96563e-139
-6.99489e-138
1.52384e-136
-3.30428e-135
5.57516e-134
-8.47041e-133
1.09712e-131
-2.0804e-130
3.90245e-129
-3.33677e-128
-1.00253e-127
8.6557e-126
-1.46859e-124
2.33105e-123
-3.07262e-122
4.12834e-121
-5.30233e-120
5.77653e-119
-6.51249e-118
6.90894e-117
-9.08125e-116
1.019e-114
-9.25276e-114
7.64574e-113
-5.6889e-112
3.6978e-111
-1.97407e-110
4.18332e-110
-2.51989e-109
7.51729e-109
-2.66515e-108
3.3226e-108
1.45129e-107
-5.74257e-107
2.86996e-106
-2.76027e-106
-2.4371e-106
1.72715e-106
7.36191e-107
2.46982e-107
-9.49712e-107
-5.33396e-109
9.18223e-107
6.65298e-107
-2.23117e-108
-3.33196e-107
-2.38164e-107
-5.86306e-108
2.55539e-108
2.74689e-108
7.6845e-109
-4.87178e-110
-1.53015e-109
-5.38774e-110
1.53033e-110
-1.88268e-110
-4.18435e-110
4.8034e-110
1.41292e-110
-9.36902e-111
-4.8104e-111
3.06669e-111
2.83546e-111
-7.05944e-112
-6.05234e-112
-2.76828e-112
2.36841e-113
7.25782e-113
1.02358e-113
-9.92078e-114
-4.51446e-114
-4.38318e-115
5.59087e-115
1.98341e-115
-5.08279e-116
-2.82175e-116
-3.64358e-117
2.03708e-117
8.009e-118
-9.54437e-119
-8.62272e-119
-1.36674e-119
6.41073e-120
2.39807e-120
-1.64879e-121
3.1018e-144
-8.3432e-143
1.5992e-141
-4.69345e-140
5.61296e-139
-1.54281e-137
4.33379e-136
-1.19173e-134
3.20763e-133
-1.62908e-131
4.25693e-130
-5.545e-129
1.32249e-127
-3.17483e-126
4.39684e-125
-9.8041e-124
7.37589e-123
-1.4886e-121
3.14174e-120
-6.44121e-119
1.28301e-117
-2.4807e-116
4.65158e-115
-8.4504e-114
1.48574e-112
-1.45911e-111
1.44594e-110
2.56228e-110
-5.55566e-109
8.09673e-108
-1.14185e-106
1.54293e-105
-1.99377e-104
2.45819e-103
2.27661e-102
2.89103e-101
-3.36851e-100
3.32614e-99
-3.09797e-98
2.69156e-97
-2.16664e-96
1.13821e-95
-3.11592e-95
1.75329e-94
-1.84693e-94
5.93591e-94
-7.29706e-94
-1.34786e-92
1.07438e-91
-2.42807e-91
8.04593e-93
7.11128e-91
-8.08176e-92
-3.09114e-91
-1.67139e-91
-1.52459e-92
2.66991e-92
5.44236e-93
-1.38715e-92
-1.34466e-92
-5.06163e-93
3.77555e-94
1.40458e-93
6.79976e-94
5.02167e-95
1.96015e-94
-3.00332e-93
2.12351e-93
4.87991e-94
-1.38693e-94
1.80688e-94
1.05511e-94
-4.6933e-95
-2.35987e-95
-1.45505e-96
4.49026e-96
4.74707e-97
-1.16364e-96
-5.75996e-97
-2.8754e-97
1.75729e-97
1.22869e-97
-1.23555e-98
-1.7075e-98
-4.89025e-99
1.20347e-99
1.22168e-99
1.38788e-100
-7.84906e-101
-3.15325e-101
2.1163e-102
3.33385e-102
5.95453e-103
-1.05006e-103
-8.352e-104
-6.67645e-105
4.4539e-105
1.14728e-105
-1.23846e-106
-8.52896e-107
-8.02213e-129
2.10986e-127
-7.71225e-126
1.82741e-124
-4.55979e-123
1.27461e-121
-2.52418e-120
6.71133e-119
-1.76636e-117
5.29496e-116
-1.16333e-114
2.43408e-113
-3.92387e-112
6.83932e-111
-1.08584e-109
3.25182e-108
-7.1076e-107
1.19047e-105
-1.25516e-104
2.41288e-103
-4.66353e-102
6.64463e-101
-9.06026e-100
7.40522e-99
-1.20039e-97
1.97061e-96
-2.8006e-95
3.79855e-94
-4.37853e-93
6.85329e-92
-9.27882e-91
1.1942e-89
-1.12959e-88
1.16217e-87
-1.28212e-86
1.20363e-85
-1.06182e-84
6.98448e-84
-5.11991e-83
2.15152e-82
-1.04296e-81
9.83331e-81
-4.43156e-80
1.63254e-79
-4.15482e-79
5.88884e-79
1.70483e-79
5.45267e-78
-9.16802e-77
1.36334e-76
1.05768e-76
-6.7593e-76
-7.92957e-77
-1.31325e-76
-1.23055e-76
1.85869e-76
5.04725e-76
4.03983e-76
7.76403e-77
-1.66817e-76
-1.7294e-76
-5.92274e-77
2.57528e-77
4.06311e-77
2.07133e-77
4.94757e-79
-5.08459e-78
-2.51422e-78
-3.32423e-79
5.47852e-79
-6.76492e-80
-1.63577e-79
-6.41214e-80
8.58812e-80
3.03113e-80
1.72848e-81
-5.78042e-81
-2.53964e-81
6.13591e-82
6.91133e-82
1.59969e-82
-4.63111e-83
-3.67732e-83
-4.31545e-84
3.50651e-84
1.57033e-84
1.67568e-86
-1.62771e-85
-4.37521e-86
4.54364e-87
4.97786e-87
6.4686e-88
-2.38374e-88
-1.08145e-88
1.03145e-90
8.7178e-90
1.42714e-90
-3.03263e-91
-1.71401e-91
2.55512e-93
-1.22242e-113
3.20816e-112
-9.87582e-111
2.87965e-109
-8.48362e-108
2.20414e-106
-5.73346e-105
1.411e-103
-3.37566e-102
7.84848e-101
-1.84643e-99
4.23843e-98
-9.89736e-97
2.06362e-95
-3.92697e-94
7.52021e-93
-1.38119e-91
2.61295e-90
-4.78439e-89
6.91433e-88
-9.41682e-87
1.28269e-85
-1.87131e-84
2.55494e-83
-1.22949e-82
1.42129e-81
-2.00459e-80
2.60015e-79
-3.47783e-78
4.26286e-77
-4.67756e-76
5.05622e-75
-6.23436e-74
6.51628e-73
-6.37414e-72
5.43056e-71
-4.21548e-70
3.61454e-69
-2.90364e-68
2.14483e-67
-1.31023e-66
7.07197e-66
-2.87459e-65
1.26688e-64
-2.83202e-64
2.63645e-65
2.86428e-63
-1.83024e-62
6.56831e-62
-1.21827e-61
-1.53847e-61
5.26945e-61
9.88902e-62
8.0886e-64
-3.64215e-61
-3.67882e-61
-2.15589e-62
2.02108e-61
2.18351e-61
6.34729e-62
-4.11986e-62
-6.10376e-62
-3.10195e-62
-5.37006e-63
3.65352e-63
4.15835e-63
-6.69852e-64
-4.48506e-64
-3.27005e-65
7.47333e-64
4.12554e-64
-2.67539e-64
-2.40786e-64
-6.31179e-65
1.79555e-65
1.85707e-65
3.66855e-66
-1.78987e-66
-1.06368e-66
-1.13242e-67
1.06402e-67
4.19763e-68
1.10859e-69
-4.23945e-69
-1.26704e-69
7.76532e-71
1.39684e-70
3.04913e-71
-4.50198e-72
-3.56358e-72
-4.32667e-73
1.82243e-73
7.18862e-74
-1.53413e-75
-5.85381e-75
-7.13997e-76
3.60775e-76
1.13404e-76
-1.17322e-77
-1.03067e-77
-2.99905e-99
7.53115e-98
-2.15489e-96
6.04294e-95
2.91064e-93
-8.18789e-92
2.15155e-90
-5.53027e-89
1.38921e-87
-3.40865e-86
8.16468e-85
-1.90801e-83
4.34742e-82
-9.65169e-81
2.08637e-79
-4.38806e-78
8.97234e-77
-1.78208e-75
3.43522e-74
-5.03662e-73
9.01962e-72
-1.58034e-70
2.67551e-69
-4.37216e-68
4.91208e-68
-3.19581e-67
4.8322e-66
-6.76906e-65
9.08637e-64
-1.166e-62
1.42718e-61
-1.66202e-60
1.83635e-59
-1.91888e-58
1.8894e-57
-1.74557e-56
1.50559e-55
-1.20502e-54
8.88205e-54
-5.97061e-53
3.61168e-52
-1.92755e-51
8.78205e-51
-3.19385e-50
7.56196e-50
2.76337e-50
-1.41325e-48
4.66645e-48
-1.35229e-47
3.16492e-47
7.23488e-47
-1.26051e-46
1.39286e-46
-1.5933e-46
2.31348e-47
8.63015e-47
5.70434e-47
-5.77351e-48
-4.42339e-47
-4.2791e-47
-2.63076e-47
1.47184e-47
2.68061e-48
2.12638e-48
-1.12772e-47
-4.82143e-48
1.138e-49
8.89008e-49
1.53167e-48
-3.64467e-49
-5.01126e-49
-1.94558e-49
-1.44315e-50
1.81433e-50
9.67464e-51
8.35814e-52
-8.44879e-52
-4.04665e-52
-4.65533e-55
4.91154e-53
4.97814e-54
3.95542e-54
4.57085e-55
-1.51982e-55
-4.03291e-56
1.31796e-56
8.25786e-57
9.17121e-58
-5.27255e-58
-2.19626e-58
-1.40433e-59
2.64517e-59
-7.30931e-60
-2.36617e-60
8.47457e-62
1.39187e-61
1.08035e-62
-2.0153e-62
-5.68384e-63
1.69394e-63
1.75787e-82
-4.30892e-81
7.63004e-80
-2.05814e-78
2.38983e-77
-6.02906e-76
1.54964e-74
-3.89112e-73
9.54347e-72
4.41766e-71
-7.50395e-69
1.7565e-67
-3.89614e-66
2.25106e-65
-4.26726e-64
8.73155e-63
-1.73286e-61
3.33757e-60
-6.23273e-59
1.12738e-57
-1.97302e-56
1.08975e-54
-1.83132e-53
2.88043e-52
-4.36354e-51
6.35228e-50
-8.87106e-49
1.18616e-47
-1.51537e-46
1.84535e-45
-2.13641e-44
2.34449e-43
-1.5408e-42
1.458e-41
-1.33535e-40
1.13711e-39
-4.79293e-39
3.3163e-38
-5.35964e-38
2.74447e-37
-1.50453e-36
6.81606e-36
-2.54353e-35
-6.53194e-35
-1.55208e-34
-2.28079e-34
1.58584e-33
-5.2574e-33
1.7237e-32
-1.20472e-32
-5.29546e-32
-1.11326e-31
2.67738e-31
3.49905e-31
9.86748e-31
1.08614e-31
-5.84273e-31
-4.96886e-31
-2.20618e-31
-8.58824e-32
-4.98683e-32
-3.90906e-32
-5.86345e-32
-4.17436e-32
-2.64341e-32
2.41487e-32
2.69861e-32
7.19819e-33
-2.71163e-33
-1.71971e-33
-4.54856e-34