/*--------------------------------*- C++ -*----------------------------------*\
  =========                 |
  \\      /  F ield         | OpenFOAM: The Open Source CFD Toolbox
   \\    /   O peration     | Website:  https://openfoam.org
    \\  /    A nd           | Version:  13
     \\/     M anipulation  |
\*---------------------------------------------------------------------------*/
FoamFile
{
    format      ascii;
    class       volScalarField;
    location    "4.2";
    object      T;
}
// * * * * * * * * * * * * * * * * * * * * * * * * * * * * * * * * * * * * * //

dimensions      [0 0 0 1 0 0 0];

internalField   nonuniform List<scalar> 
10000
(
1.09395e-70
-3.51422e-71
4.63319e-70
-1.72259e-69
6.57354e-69
-2.16204e-68
5.56446e-68
-5.56996e-68
-5.55896e-67
5.39859e-66
-3.27019e-65
1.61886e-64
-6.98745e-64
2.68394e-63
-9.19254e-63
2.77395e-62
-7.14193e-62
1.44442e-61
-1.64675e-61
-2.72025e-61
2.31042e-60
-7.7592e-60
1.55317e-59
-8.21955e-60
-7.18438e-59
3.09322e-58
-5.9235e-58
-4.02525e-59
3.87742e-57
-1.13279e-56
8.13134e-57
4.77961e-56
-1.72374e-55
1.29386e-55
7.37849e-55
-2.35913e-54
4.09152e-55
1.30196e-53
-2.50984e-53
-3.43666e-53
1.93608e-52
-6.56231e-53
-1.00392e-51
1.44077e-51
4.16384e-51
-1.12029e-50
-1.49305e-50
6.79854e-50
5.13291e-50
-3.71089e-49
-2.12878e-49
1.91425e-48
1.30752e-48
-9.34494e-48
-1.00457e-47
4.11663e-47
7.5246e-47
-1.42095e-46
-4.86627e-46
1.78783e-46
2.48083e-45
2.31496e-45
-8.1003e-45
-2.26839e-44
-1.15315e-45
9.71985e-44
1.87417e-43
-3.77361e-44
-8.5979e-43
-1.76112e-42
-6.80345e-43
5.23028e-42
1.59892e-41
2.31026e-41
5.94953e-42
-6.40865e-41
-2.09351e-40
-4.2678e-40
-6.75993e-40
-8.8616e-40
-9.831e-40
-9.24228e-40
-7.21531e-40
-4.38193e-40
-1.60063e-40
4.18558e-41
1.37508e-40
1.40762e-40
9.2085e-41
3.41328e-41
-5.96996e-42
-2.12101e-41
-1.85455e-41
-9.12531e-42
-1.11728e-42
2.53557e-42
2.67447e-42
1.38332e-42
1.9705e-43
-3.16597e-43
-1.21734e-69
4.12704e-70
-5.27309e-69
1.99212e-68
-7.74861e-68
2.64239e-67
-7.41101e-67
1.21496e-66
3.43376e-66
-4.80368e-65
3.14238e-64
-1.609e-63
7.0795e-63
-2.75386e-62
9.51968e-62
-2.89434e-61
7.50456e-61
-1.53103e-60
1.78585e-60
2.71879e-60
-2.40846e-59
8.16879e-59
-1.6499e-58
9.16759e-59
7.48082e-58
-3.26094e-57
6.29972e-57
2.62566e-58
-4.0744e-56
1.20005e-55
-8.79654e-56
-5.01836e-55
1.82534e-54
-1.39286e-54
-7.76666e-54
2.50092e-53
-4.61874e-54
-1.37534e-52
2.66671e-52
3.61073e-52
-2.05084e-51
7.08706e-52
1.06203e-50
-1.53075e-50
-4.40135e-50
1.18787e-49
1.57753e-49
-7.20349e-49
-5.42524e-49
3.9307e-48
2.25419e-48
-2.02718e-47
-1.38727e-47
9.89252e-47
1.06624e-46
-4.35419e-46
-7.98158e-46
1.49971e-45
5.15596e-45
-1.85835e-45
-2.62381e-44
-2.46659e-44
8.53411e-44
2.40258e-43
1.46375e-44
-1.02457e-42
-1.9868e-42
3.71091e-43
9.04622e-42
1.86368e-41
7.44515e-42
-5.46563e-41
-1.68266e-40
-2.44635e-40
-6.7453e-41
6.64001e-40
2.18505e-39
4.4644e-39
7.07869e-39
9.28438e-39
1.03023e-38
9.68513e-39
7.55848e-39
4.58593e-39
1.66895e-39
-4.47182e-40
-1.4475e-39
-1.47841e-39
-9.6534e-40
-3.56262e-40
6.44004e-41
2.23598e-40
1.94887e-40
9.55764e-41
1.14189e-41
-2.68292e-41
-2.81497e-41
-1.45061e-41
-2.02484e-42
3.34742e-42
1.82467e-68
-6.40269e-69
8.02125e-68
-3.06126e-67
1.20482e-66
-4.19724e-66
1.23276e-65
-2.41628e-65
-2.39483e-65
5.99666e-64
-4.21361e-63
2.21936e-62
-9.91583e-62
3.89516e-61
-1.35601e-60
4.14606e-60
-1.08064e-59
2.21871e-59
-2.63043e-59
-3.7669e-59
3.44765e-58
-1.17794e-57
2.39476e-57
-1.37645e-57
-1.06995e-56
4.70696e-56
-9.15155e-56
-2.07657e-57
5.8671e-55
-1.73838e-54
1.2935e-54
7.22205e-54
-2.64338e-53
2.04111e-53
1.11981e-52
-3.62466e-52
6.99105e-53
1.98818e-51
-3.87131e-51
-5.19881e-51
2.97066e-50
-1.04095e-50
-1.53688e-49
2.22216e-49
6.36551e-49
-1.72189e-48
-2.28078e-48
1.04364e-47
7.84569e-48
-5.69352e-47
-3.26427e-47
2.93585e-46
2.01179e-46
-1.43229e-45
-1.54668e-45
6.30035e-45
1.15729e-44
-2.16662e-44
-7.4698e-44
2.65462e-44
3.79636e-43
3.58806e-43
-1.23131e-42
-3.47991e-42
-2.37535e-43
1.47881e-41
2.87956e-41
-5.07351e-42
-1.30391e-40
-2.69767e-40
-1.1036e-40
7.83834e-40
2.42573e-39
3.54273e-39
1.02386e-39
-9.46145e-39
-3.13074e-38
-6.4073e-38
-1.01672e-37
-1.33405e-37
-1.48057e-37
-1.39184e-37
-1.08595e-37
-6.584e-38
-2.38947e-38
6.51781e-39
2.08715e-38
2.12816e-38
1.38767e-38
5.10464e-39
-9.45119e-40
-3.22752e-39
-2.80651e-39
-1.37299e-39
-1.61014e-40
3.88316e-40
4.05854e-40
2.08572e-40
2.86714e-41
-4.84226e-41
-2.66532e-67
9.66149e-68
-1.18841e-66
4.57895e-66
-1.82175e-65
6.46817e-65
-1.97447e-64
4.37768e-64
-4.23358e-65
-7.04454e-63
5.44755e-62
-2.96783e-61
1.34934e-60
-5.35844e-60
1.87978e-59
-5.78249e-59
1.51555e-58
-3.13256e-58
3.77649e-58
5.06299e-58
-4.80482e-57
1.65447e-56
-3.38672e-56
2.01414e-56
1.48978e-55
-6.61815e-55
1.29538e-54
3.78076e-57
-8.2285e-54
2.4534e-53
-1.85398e-53
-1.01223e-52
3.72948e-52
-2.91529e-52
-1.57261e-51
5.11825e-51
-1.03114e-51
-2.79984e-50
5.47599e-50
7.29023e-50
-4.19229e-49
1.49035e-49
2.16671e-48
-3.14321e-48
-8.96856e-48
2.43185e-47
3.21233e-47
-1.47315e-46
-1.10529e-46
8.03476e-46
4.60512e-46
-4.1424e-45
-2.84246e-45
2.02034e-44
2.18599e-44
-8.88145e-44
-1.63492e-43
3.04921e-43
1.05437e-42
-3.69146e-43
-5.35132e-42
-5.08604e-42
1.7305e-41
4.91065e-41
3.72903e-42
-2.07916e-40
-4.06623e-40
6.71392e-41
1.83061e-39
3.8043e-39
1.59468e-39
-1.09455e-38
-3.40614e-38
-4.99845e-38
-1.51419e-38
1.31206e-37
4.36747e-37
8.95436e-37
1.42206e-36
1.86669e-36
2.07208e-36
1.94786e-36
1.51936e-36
9.20474e-37
3.3307e-37
-9.25796e-38
-2.93134e-37
-2.98364e-37
-1.94261e-37
-7.12129e-38
1.35196e-38
4.5381e-38
3.93636e-38
1.92071e-38
2.20737e-39
-5.47557e-39
-5.69954e-39
-2.92056e-39
-3.94884e-40
6.82403e-40
3.79758e-66
-1.41905e-66
1.71627e-65
-6.67159e-65
2.68061e-64
-9.67909e-64
3.05189e-63
-7.40216e-63
5.98787e-63
7.68274e-62
-6.79073e-61
3.85248e-60
-1.78658e-59
7.1802e-59
-2.53982e-58
7.8635e-58
-2.07305e-57
4.3148e-57
-5.29086e-57
-6.6104e-57
6.52876e-56
-2.26659e-55
4.67288e-55
-2.87503e-55
-2.02232e-54
9.07672e-54
-1.78897e-53
3.11701e-55
1.12555e-52
-3.37795e-52
2.59321e-52
1.38366e-51
-5.13326e-51
4.06335e-51
2.15412e-50
-7.05096e-50
1.48324e-50
3.84624e-49
-7.55728e-49
-9.97052e-49
5.77182e-48
-2.0824e-48
-2.97993e-47
4.33784e-47
1.23267e-46
-3.35079e-46
-4.41349e-46
2.02868e-45
1.51896e-45
-1.10619e-44
-6.33782e-45
5.70211e-44
3.91812e-44
-2.78024e-43
-3.01424e-43
1.22139e-42
2.25334e-42
-4.18619e-42
-1.45193e-41
5.00444e-42
7.35877e-41
7.03433e-41
-2.37234e-40
-6.76047e-40
-5.67067e-41
2.85147e-39
5.6019e-39
-8.60811e-40
-2.50681e-38
-5.23383e-38
-2.24865e-38
1.4904e-37
4.66512e-37
6.88018e-37
2.18359e-37
-1.77338e-36
-5.94071e-36
-1.2203e-35
-1.93968e-35
-2.54728e-35
-2.82807e-35
-2.65847e-35
-2.07306e-35
-1.25491e-35
-4.52661e-36
1.28316e-36
4.01571e-36
4.07977e-36
2.65215e-36
9.68677e-37
-1.8873e-37
-6.22421e-37
-5.38491e-37
-2.62031e-37
-2.9465e-38
7.53233e-38
7.80714e-38
3.98837e-38
5.29786e-39
-9.38166e-39
-5.27486e-65
2.02802e-65
-2.41475e-64
9.46456e-64
-3.83726e-63
1.4065e-62
-4.55888e-62
1.18422e-61
-1.55302e-61
-7.51802e-61
8.13205e-60
-4.84751e-59
2.29953e-58
-9.36492e-58
3.34248e-57
-1.04201e-56
2.76403e-56
-5.79477e-56
7.22925e-56
8.37351e-56
-8.64403e-55
3.027e-54
-6.28682e-54
4.00107e-54
2.67474e-53
-1.21358e-52
2.40913e-52
-9.24139e-54
-1.50072e-51
4.53472e-51
-3.53768e-51
-1.84356e-50
6.88885e-50
-5.52368e-50
-2.87634e-49
9.47105e-49
-2.07968e-49
-5.15128e-48
1.017e-47
1.32916e-47
-7.74801e-47
2.83802e-47
3.99585e-46
-5.83755e-46
-1.65178e-45
4.50184e-45
5.91177e-45
-2.72396e-44
-2.03511e-44
1.48494e-43
8.50418e-44
-7.65307e-43
-5.26603e-43
3.73037e-42
4.05266e-42
-1.63769e-41
-3.02825e-41
5.6031e-41
1.9495e-40
-6.61007e-41
-9.86624e-40
-9.48729e-40
3.17053e-39
9.07475e-39
8.35771e-40
-3.81247e-38
-7.52507e-38
1.06722e-38
3.34636e-37
7.0206e-37
3.09252e-37
-1.97769e-36
-6.2286e-36
-9.23388e-36
-3.06896e-36
2.33462e-35
7.8742e-35
1.62071e-34
2.57853e-34
3.38783e-34
3.76203e-34
3.53633e-34
2.75679e-34
1.66738e-34
5.9944e-35
-1.73443e-35
-5.36276e-35
-5.4377e-35
-3.52911e-35
-1.28399e-35
2.56964e-36
8.3224e-36
7.18063e-36
3.48402e-36
3.82662e-37
-1.01027e-36
-1.04249e-36
-5.30868e-37
-6.91876e-38
1.25752e-37
7.13788e-64
-2.81878e-64
3.30793e-63
-1.30657e-62
5.34137e-62
-1.98438e-61
6.58685e-61
-1.80633e-60
3.04367e-60
6.05515e-60
-9.30633e-59
5.90214e-58
-2.8741e-57
1.18785e-56
-4.28116e-56
1.34451e-55
-3.5897e-55
7.58273e-55
-9.62708e-55
-1.02749e-54
1.11432e-53
-3.93792e-53
8.24172e-53
-5.42507e-53
-3.4442e-52
1.58068e-51
-3.16137e-51
1.8943e-52
1.94902e-50
-5.93143e-50
4.70385e-50
2.39248e-49
-9.00758e-49
7.31849e-49
3.74128e-48
-1.23957e-47
2.84051e-48
6.7215e-47
-1.33362e-46
-1.72586e-46
1.0134e-45
-3.77007e-46
-5.22044e-45
7.65504e-45
2.15645e-44
-5.89341e-44
-7.71476e-44
3.56379e-43
2.65642e-43
-1.94225e-42
-1.11177e-42
1.00081e-41
6.8962e-42
-4.87681e-41
-5.30931e-41
2.1395e-40
3.96542e-40
-7.30659e-40
-2.55048e-39
8.50012e-40
1.28884e-38
1.24693e-38
-4.12792e-38
-1.1869e-37
-1.19412e-38
4.96588e-37
9.8496e-37
-1.27619e-37
-4.35154e-36
-9.17572e-36
-4.1453e-36
2.55558e-35
8.10104e-35
1.20751e-34
4.20116e-35
-2.99126e-34
-1.01628e-33
-2.09624e-33
-3.33835e-33
-4.38831e-33
-4.87404e-33
-4.5815e-33
-3.57044e-33
-2.15755e-33
-7.72916e-34
2.28479e-34
6.97654e-34
7.05955e-34
4.57379e-34
1.65723e-34
-3.4101e-35
-1.08409e-34
-9.32697e-35
-4.51163e-35
-4.83045e-36
1.32024e-35
1.35606e-35
6.88222e-36
8.7877e-37
-1.64229e-36
-9.40308e-63
3.80825e-63
-4.40907e-62
1.75413e-61
-7.22601e-61
2.71741e-60
-9.20912e-60
2.63907e-59
-5.20862e-59
-2.7366e-59
1.00996e-57
-6.93892e-57
3.48402e-56
-1.46386e-55
5.33237e-55
-1.68793e-54
4.53765e-54
-9.66075e-54
1.24858e-53
1.21913e-53
-1.39757e-52
4.98673e-52
-1.05203e-51
7.16181e-52
4.31444e-51
-2.00419e-50
4.03952e-50
-3.31793e-51
-2.4637e-49
7.55377e-49
-6.09163e-49
-3.02187e-48
1.14673e-47
-9.44393e-48
-4.73685e-47
1.57962e-46
-3.77675e-47
-8.53827e-46
1.70287e-45
2.18111e-45
-1.29055e-44
4.87819e-45
6.64023e-44
-9.77487e-44
-2.74087e-43
7.5121e-43
9.80115e-43
-4.53975e-42
-3.37562e-42
2.47347e-41
1.41504e-41
-1.2743e-40
-8.79305e-41
6.20751e-40
6.77257e-40
-2.72132e-39
-5.05595e-39
9.27598e-39
3.24884e-38
-1.06334e-38
-1.63921e-37
-1.59591e-37
5.23187e-37
1.51146e-36
1.65393e-37
-6.29678e-36
-1.25529e-35
1.46714e-36
5.50822e-35
1.16762e-34
5.4118e-35
-3.21336e-34
-1.02563e-33
-1.53745e-33
-5.59774e-34
3.72693e-33
1.27621e-32
2.63838e-32
4.2061e-32
5.53188e-32
6.14555e-32
5.77654e-32
4.50025e-32
2.71681e-32
9.69593e-33
-2.93117e-33
-8.83475e-33
-8.92063e-33
-5.769e-33
-2.08117e-33
4.40775e-34
1.37471e-33
1.1792e-33
5.68564e-34
5.92071e-35
-1.67982e-34
-1.71705e-34
-8.68347e-35
-1.08451e-35
2.08816e-35
1.20499e-61
-4.99801e-62
5.71386e-61
-2.28871e-60
9.49507e-60
-3.61038e-59
1.24607e-58
-3.70354e-58
8.16052e-58
-2.985e-58
-1.0267e-56
7.8565e-56
-4.0906e-55
1.75095e-54
-6.45293e-54
2.06005e-53
-5.57846e-53
1.19744e-52
-1.5759e-52
-1.39567e-52
1.70387e-51
-6.14204e-51
1.30656e-50
-9.19821e-51
-5.25317e-50
2.47178e-49
-5.02216e-49
5.2755e-50
3.02878e-48
-9.35892e-48
7.67764e-48
3.71185e-47
-1.42025e-46
1.18602e-46
5.83311e-46
-1.95842e-45
4.88479e-46
1.05508e-44
-2.11562e-44
-2.68067e-44
1.59892e-43
-6.14354e-44
-8.2167e-43
1.21447e-42
3.38892e-42
-9.31621e-42
-1.21127e-41
5.62631e-41
4.17269e-41
-3.0646e-40
-1.75206e-40
1.57854e-39
1.09077e-39
-7.68707e-39
-8.40526e-39
3.36744e-38
6.27191e-38
-1.14558e-37
-4.02631e-37
1.29293e-37
2.02823e-36
1.98751e-36
-6.45011e-36
-1.87262e-35
-2.22033e-36
7.76665e-35
1.55651e-34
-1.6145e-35
-6.78163e-34
-1.44551e-33
-6.8761e-34
3.92835e-33
1.26298e-32
1.9045e-32
7.2546e-33
-4.51147e-32
-1.558e-31
-3.22878e-31
-5.15301e-31
-6.78103e-31
-7.53505e-31
-7.0824e-31
-5.51564e-31
-3.32642e-31
-1.18237e-31
3.65939e-32
1.0882e-31
1.09629e-31
7.07602e-32
2.54081e-32
-5.54488e-33
-1.69569e-32
-1.44996e-32
-6.96733e-33
-7.03848e-34
2.07934e-33
2.11469e-33
1.06545e-33
1.29916e-34
-2.58299e-34
-1.50089e-60
6.36767e-61
-7.19396e-60
2.90003e-59
-1.21105e-58
4.65148e-58
-1.63161e-57
5.00084e-57
-1.19556e-56
1.15422e-56
9.56454e-56
-8.53835e-55
4.64461e-54
-2.03049e-53
7.57976e-53
-2.44201e-52
6.66404e-52
-1.44276e-51
1.93408e-51
1.53751e-51
-2.01748e-50
7.35177e-50
-1.57747e-49
1.14842e-49
6.2113e-49
-2.96271e-48
6.07019e-48
-7.81118e-49
-3.61813e-47
1.12716e-46
-9.40993e-47
-4.43016e-46
1.70987e-45
-1.44841e-45
-6.98049e-45
2.36033e-44
-6.14111e-45
-1.26723e-43
2.55533e-43
3.20133e-43
-1.92568e-42
7.52461e-43
9.88308e-42
-1.46699e-41
-4.07281e-41
1.12317e-40
1.45496e-40
-6.77847e-40
-5.01325e-40
3.69109e-39
2.10863e-39
-1.90086e-38
-1.31534e-38
9.25358e-38
1.01408e-37
-4.05056e-37
-7.56348e-37
1.37516e-36
4.85066e-36
-1.52669e-36
-2.43945e-35
-2.40654e-35
7.72862e-35
2.25537e-34
2.88807e-35
-9.31065e-34
-1.87625e-33
1.69024e-34
8.11422e-33
1.73958e-32
8.49591e-33
-4.66511e-32
-1.51147e-31
-2.29339e-31
-9.13774e-32
5.30069e-31
1.84741e-30
3.83853e-30
6.13338e-30
8.07593e-30
8.97619e-30
8.4367e-30
6.56786e-30
3.95671e-30
1.40034e-30
-4.44222e-31
-1.30263e-30
-1.30916e-30
-8.43273e-31
-3.01296e-31
6.78335e-32
2.03287e-31
1.73253e-31
8.29508e-32
8.10501e-33
-2.502e-32
-2.53108e-32
-1.2702e-32
-1.50896e-33
3.10575e-33
1.8155e-59
-7.86953e-60
8.79223e-59
-3.56575e-58
1.49818e-57
-5.80769e-57
2.06686e-56
-6.50366e-56
1.65606e-55
-2.31277e-55
-7.79387e-55
8.86754e-54
-5.09087e-53
2.28009e-52
-8.63309e-52
2.80902e-51
-7.7287e-51
1.68831e-50
-2.3061e-50
-1.6243e-50
2.31781e-49
-8.54401e-49
1.84989e-48
-1.39266e-48
-7.12499e-48
3.44819e-47
-7.12663e-47
1.091e-47
4.19607e-46
-1.31845e-45
1.12056e-45
5.13293e-45
-1.99929e-44
1.7186e-44
8.11062e-44
-2.76296e-43
7.4983e-44
1.47805e-42
-2.99799e-42
-3.71141e-42
2.2525e-41
-8.95541e-42
-1.15447e-40
1.72126e-40
4.75339e-40
-1.31523e-39
-1.69714e-39
7.93186e-39
5.84893e-39
-4.31782e-38
-2.4645e-38
2.22317e-37
1.5405e-37
-1.08189e-36
-1.18834e-36
4.732e-36
8.8591e-36
-1.60311e-35
-5.67583e-35
1.74896e-35
2.84955e-34
2.8306e-34
-8.99238e-34
-2.63826e-33
-3.63821e-34
1.08386e-32
2.19673e-32
-1.66799e-33
-9.42674e-32
-2.03324e-31
-1.01994e-31
5.37659e-31
1.75632e-30
2.68232e-30
1.11772e-30
-6.03867e-30
-2.12569e-29
-4.42907e-29
-7.08589e-29
-9.33604e-29
-1.03795e-28
-9.75537e-29
-7.59138e-29
-4.56803e-29
-1.6092e-29
5.23893e-30
1.51404e-29
1.51778e-29
9.75528e-30
3.467e-30
-8.06312e-31
-2.36656e-30
-2.00987e-30
-9.58605e-31
-9.02783e-32
2.92393e-31
2.9415e-31
1.47e-31
1.69727e-32
-3.62671e-32
-2.13067e-58
9.4263e-59
-1.04215e-57
4.25068e-57
-1.79617e-56
7.0223e-56
-2.53185e-55
8.15017e-55
-2.18241e-54
3.75706e-54
4.85291e-54
-8.74635e-53
5.37532e-52
-2.47592e-51
9.52366e-51
-3.13222e-50
8.69357e-50
-1.91697e-49
2.66893e-49
1.63819e-49
-2.58101e-48
9.63172e-48
-2.1051e-47
1.63886e-47
7.9208e-47
-3.89312e-46
8.11953e-46
-1.4478e-46
-4.71976e-45
1.49641e-44
-1.29532e-44
-5.76769e-44
2.26824e-43
-1.97946e-43
-9.14081e-43
3.13834e-42
-8.88403e-43
-1.67253e-41
3.41336e-41
4.17296e-41
-2.55659e-40
1.03474e-40
1.30846e-39
-1.95997e-39
-5.38241e-39
1.49452e-38
1.92058e-38
-9.00636e-38
-6.6202e-38
4.90118e-37
2.79463e-37
-2.523e-36
-1.75065e-36
1.22737e-35
1.35127e-35
-5.36391e-35
-1.00693e-34
1.81319e-34
6.44448e-34
-1.94185e-34
-3.22971e-33
-3.23121e-33
1.01502e-32
2.99464e-32
4.43614e-33
-1.22405e-31
-2.49579e-31
1.52808e-32
1.06234e-30
2.30594e-30
1.18861e-30
-6.00769e-30
-1.97969e-29
-3.04419e-29
-1.32653e-29
6.66275e-29
2.37099e-28
4.95503e-28
7.93806e-28
1.04659e-27
1.1639e-27
1.09387e-27
8.50857e-28
5.11361e-28
1.79241e-28
-5.99705e-29
-1.70706e-28
-1.70669e-28
-1.0944e-28
-3.86735e-29
9.30403e-30
2.67272e-29
2.26152e-29
1.07422e-29
9.71119e-31
-3.31557e-30
-3.31606e-30
-1.64983e-30
-1.84626e-31
4.1092e-31
2.42367e-57
-1.09336e-57
1.19685e-56
-4.90811e-56
2.0851e-55
-8.21609e-55
2.99734e-54
-9.84251e-54
2.74627e-53
-5.42473e-53
-7.82386e-54
8.11755e-52
-5.45374e-51
2.59601e-50
-1.01635e-49
3.38191e-49
-9.47455e-49
2.10981e-48
-2.99516e-48
-1.56733e-48
2.78266e-47
-1.05213e-46
2.32223e-46
-1.86967e-46
-8.52402e-46
4.25954e-45
-8.96826e-45
1.83311e-45
5.14352e-44
-1.64628e-43
1.45205e-43
6.27873e-43
-2.4944e-42
2.21095e-42
9.98222e-42
-3.45554e-41
1.02042e-41
1.8343e-40
-3.76767e-40
-4.54555e-40
2.81277e-39
-1.15958e-39
-1.43742e-38
2.16372e-38
5.90708e-38
-1.6463e-37
-2.10642e-37
9.91329e-37
7.262e-37
-5.39293e-36
-3.07142e-36
2.77554e-35
1.92845e-35
-1.34974e-34
-1.48952e-34
5.89373e-34
1.10945e-33
-1.98774e-33
-7.09317e-33
2.08725e-33
3.54829e-32
3.57619e-32
-1.11034e-31
-3.29508e-31
-5.23186e-32
1.33974e-30
2.74884e-30
-1.26281e-31
-1.16012e-29
-2.53507e-29
-1.34332e-29
6.50122e-29
2.1624e-28
3.34913e-28
1.52609e-28
-7.11101e-28
-2.56079e-27
-5.36907e-27
-8.61384e-27
-1.13651e-26
-1.26429e-26
-1.18817e-26
-9.23784e-27
-5.54452e-27
-1.93299e-27
6.65668e-28
1.86511e-27
1.85939e-27
1.18938e-27
4.17727e-28
-1.04118e-28
-2.92535e-28
-2.46562e-28
-1.16607e-28
-1.00699e-29
3.6444e-29
3.62259e-29
1.79385e-29
1.93935e-30
-4.51294e-30
-2.66928e-56
1.22682e-56
-1.33037e-55
5.4837e-55
-2.34135e-54
9.29319e-54
-3.42677e-53
1.1452e-52
-3.30685e-52
7.20585e-52
-4.20475e-52
-6.98251e-51
5.3005e-50
-2.62376e-49
1.04786e-48
-3.53157e-48
9.99307e-48
-2.24834e-47
3.25581e-47
1.40909e-47
-2.90112e-46
1.11242e-45
-2.48071e-45
2.06566e-45
8.86901e-45
-4.51133e-44
9.59285e-44
-2.21989e-44
-5.42469e-43
1.75371e-42
-1.57685e-42
-6.61424e-42
2.65605e-41
-2.39229e-41
-1.0551e-40
3.68428e-40
-1.13507e-40
-1.9476e-39
4.02749e-39
4.7915e-39
-2.99652e-38
1.25905e-38
1.52891e-37
-2.31335e-37
-6.27647e-37
1.75616e-36
2.23657e-36
-1.05661e-35
-7.71172e-36
5.74608e-35
3.26811e-35
-2.95664e-34
-2.05691e-34
1.43728e-33
1.58994e-33
-6.27052e-33
-1.18374e-32
2.10979e-32
7.55996e-32
-2.16941e-32
-3.77461e-31
-3.83339e-31
1.17585e-30
3.51086e-30
5.96333e-31
-1.41958e-29
-2.93182e-29
8.80501e-31
1.22632e-28
2.69865e-28
1.47076e-28
-6.80552e-28
-2.28632e-27
-3.56797e-27
-1.70012e-27
7.33142e-27
2.67496e-26
5.62815e-26
9.04362e-26
1.19415e-25
1.32884e-25
1.24879e-25
9.70431e-26
5.81618e-26
2.01587e-26
-7.15724e-27
-1.97255e-26
-1.96055e-26
-1.25078e-26
-4.3639e-27
1.12878e-27
3.09965e-27
2.60172e-27
1.22471e-27
1.00441e-28
-3.87882e-28
-3.83072e-28
-1.8874e-28
-1.9638e-29
4.79903e-29
2.84297e-55
-1.33022e-55
1.42964e-54
-5.92175e-54
2.54036e-53
-1.01516e-52
3.78011e-52
-1.28316e-51
3.81454e-51
-8.95013e-51
9.72327e-51
5.41126e-50
-4.91539e-49
2.55126e-48
-1.04221e-47
3.56213e-47
-1.0188e-46
2.31721e-46
-3.42416e-46
-1.17204e-46
2.92103e-45
-1.13707e-44
2.56316e-44
-2.20764e-44
-8.91e-44
4.61961e-43
-9.92532e-43
2.57469e-43
5.53009e-42
-1.80676e-41
1.65696e-41
6.73432e-41
-2.73521e-40
2.5047e-40
1.07811e-39
-3.79929e-39
1.22142e-39
1.99964e-38
-4.16454e-38
-4.8816e-38
3.08746e-37
-1.32304e-37
-1.57269e-36
2.3926e-36
6.449e-36
-1.812e-35
-2.29627e-35
1.08927e-34
7.91838e-35
-5.92155e-34
-3.36261e-34
3.04625e-33
2.12183e-33
-1.48028e-32
-1.64148e-32
6.45233e-32
1.22163e-31
-2.16561e-31
-7.79331e-31
2.17749e-31
3.88345e-30
3.97512e-30
-1.20405e-29
-3.61813e-29
-6.56295e-30
1.45448e-28
3.02461e-28
-4.07235e-30
-1.25329e-27
-2.77851e-27
-1.55824e-27
6.88266e-27
2.33716e-26
3.67655e-26
1.83206e-26
-7.29084e-26
-2.69895e-25
-5.70034e-25
-9.1751e-25
-1.21253e-24
-1.34977e-24
-1.2684e-24
-9.85149e-25
-5.89528e-25
-2.03032e-25
7.44574e-26
2.01698e-25
1.99823e-25
1.27121e-25
4.40352e-26
-1.18421e-26
-3.17577e-26
-2.65388e-26
-1.24302e-26
-9.61219e-28
3.9928e-27
3.91642e-27
1.91929e-27
1.91329e-28
-4.9355e-28
-2.9245e-54
1.3921e-54
-1.48341e-53
6.17321e-53
-2.66009e-52
1.06974e-51
-4.01931e-51
1.38359e-50
-4.21708e-50
1.04843e-49
-1.52524e-49
-3.54003e-49
4.32651e-48
-2.38144e-47
9.98393e-47
-3.46558e-46
1.00267e-45
-2.30672e-45
3.47986e-45
8.7599e-46
-2.83626e-44
1.12215e-43
-2.55833e-43
2.2795e-43
8.63007e-43
-4.56772e-42
9.92095e-42
-2.86175e-42
-5.44199e-41
1.79796e-40
-1.6827e-40
-6.61807e-40
2.72068e-39
-2.53438e-39
-1.06357e-38
3.78459e-38
-1.26997e-38
-1.98274e-37
4.16033e-37
4.8004e-37
-3.07284e-36
1.34391e-36
1.56249e-35
-2.39084e-35
-6.39951e-35
1.80615e-34
2.27672e-34
-1.08476e-33
-7.8514e-34
5.89483e-33
3.34131e-33
-3.0318e-32
-2.11416e-32
1.4727e-31
1.63708e-31
-6.41335e-31
-1.21788e-30
2.147e-30
7.76072e-30
-2.10769e-30
-3.85933e-29
-3.98274e-29
1.19065e-28
3.60192e-28
6.96678e-29
-1.43917e-27
-3.01441e-27
-1.14886e-29
1.23676e-26
2.76339e-26
1.59562e-26
-6.71559e-26
-2.30689e-25
-3.65971e-25
-1.90743e-25
6.98202e-25
2.62662e-24
5.5707e-24
8.98289e-24
1.18821e-23
1.3232e-23
1.24338e-23
9.65156e-24
5.76599e-24
1.97204e-24
-7.48533e-25
-1.99143e-24
-1.96611e-24
-1.24697e-24
-4.28603e-25
1.20077e-25
3.14217e-25
2.6135e-25
1.21754e-25
8.79869e-27
-3.97021e-26
-3.86622e-26
-1.88382e-26
-1.78951e-27
4.90283e-27
2.90154e-53
-1.40425e-53
1.48418e-52
-6.20404e-52
2.6847e-51
-1.08604e-50
4.11453e-50
-1.43436e-49
4.46776e-49
-1.16378e-48
2.02082e-48
1.55466e-48
-3.58804e-47
2.12838e-46
-9.19534e-46
3.24711e-45
-9.51221e-45
2.21487e-44
-3.41264e-44
-5.49767e-45
2.65165e-43
-1.06769e-42
2.46332e-42
-2.27098e-42
-8.04605e-42
4.35488e-41
-9.56709e-41
3.04842e-41
5.16208e-40
-1.72584e-39
1.64929e-39
6.26846e-39
-2.61034e-38
2.47504e-38
1.01152e-37
-3.63669e-37
1.27422e-37
1.89599e-36
-4.00986e-36
-4.54967e-36
2.95009e-35
-1.31784e-35
-1.49728e-34
2.30512e-34
6.12455e-34
-1.73682e-33
-2.17687e-33
1.04213e-32
7.50705e-33
-5.66092e-32
-3.20188e-32
2.91082e-31
2.03186e-31
-1.41338e-30
-1.57499e-30
6.14917e-30
1.17129e-29
-2.05307e-29
-7.45536e-29
1.96441e-29
3.69965e-28
3.85027e-28
-1.13546e-27
-3.45917e-27
-7.12485e-28
1.37332e-26
2.89834e-26
6.33092e-28
-1.17679e-25
-2.65124e-25
-1.57707e-25
6.31235e-25
2.19557e-24
3.51439e-24
1.9162e-24
-6.42683e-24
-2.46179e-23
-5.245e-23
-8.47459e-23
-1.12208e-22
-1.25008e-22
-1.17461e-22
-9.11203e-23
-5.43378e-23
-1.84429e-23
7.26235e-24
1.89587e-23
1.86485e-23
1.17887e-23
4.01766e-24
-1.17524e-24
-2.99814e-24
-2.48123e-24
-1.14922e-24
-7.67372e-26
3.80815e-25
3.68012e-25
1.78211e-25
1.60255e-26
-4.69793e-26
-2.77229e-52
1.36339e-52
-1.42971e-51
6.00203e-51
-2.60773e-50
1.06079e-49
-4.04984e-49
1.42807e-48
-4.53377e-48
1.22725e-47
-2.40402e-47
3.38128e-48
2.77255e-46
-1.81568e-45
8.12615e-45
-2.92508e-44
8.68504e-44
-2.04819e-43
3.22475e-43
2.26815e-44
-2.38282e-42
9.77899e-42
-2.28463e-41
2.17979e-41
7.20783e-41
-3.99728e-40
8.88741e-40
-3.11096e-40
-4.71244e-39
1.59553e-38
-1.55792e-38
-5.71331e-38
2.41211e-37
-2.32946e-37
-9.26015e-37
3.366e-36
-1.23199e-36
-1.74583e-35
3.7233e-35
4.14927e-35
-2.72796e-34
1.24578e-34
1.3818e-33
-2.14125e-33
-5.64435e-33
1.60888e-32
2.00411e-32
-9.64389e-32
-6.91081e-32
5.23646e-31
2.95441e-31
-2.69191e-30
-1.88069e-30
1.30658e-29
1.45954e-29
-5.67895e-29
-1.08511e-28
1.89081e-28
6.89884e-28
-1.75998e-28
-3.41599e-27
-3.58622e-27
1.04268e-26
3.20003e-26
7.01064e-27
-1.26192e-25
-2.68453e-25
-1.09226e-26
1.07802e-24
2.45011e-24
1.50236e-24
-5.70639e-24
-2.01181e-23
-3.25096e-23
-1.85485e-23
5.67437e-23
2.21829e-22
4.75002e-22
7.6916e-22
1.01951e-21
1.13631e-21
1.06765e-21
8.27669e-22
4.92586e-22
1.65789e-22
-6.79011e-23
-1.73769e-22
-1.70246e-22
-1.07239e-22
-3.6209e-23
1.10866e-23
2.7546e-23
2.26747e-23
1.04363e-23
6.34417e-25
-3.51832e-24
-3.37251e-24
-1.62233e-24
-1.36974e-25
4.33574e-25
2.54656e-51
-1.27202e-51
1.32383e-50
-5.58049e-50
2.43387e-49
-9.95272e-49
3.82694e-48
-1.36365e-47
4.403e-47
-1.23096e-46
2.63314e-46
-1.94619e-46
-1.95933e-45
1.47283e-44
-6.87497e-44
2.52862e-43
-7.61863e-43
1.82111e-42
-2.93135e-42
6.04063e-44
2.05416e-41
-8.60702e-41
2.03763e-40
-2.01256e-40
-6.19173e-40
3.52637e-39
-7.94015e-39
3.03927e-39
4.13298e-38
-1.41833e-37
1.416e-37
5.00202e-37
-2.14317e-36
2.1096e-36
8.14599e-36
-2.99592e-35
1.14607e-35
1.54539e-34
-3.32522e-34
-3.63481e-34
2.42569e-33
-1.13351e-33
-1.22609e-32
1.91324e-32
5.00081e-32
-1.43336e-31
-1.77356e-31
8.58257e-31
6.11483e-31
-4.65816e-30
-2.62042e-30
2.39405e-29
1.67373e-29
-1.16154e-28
-1.30066e-28
5.0435e-28
9.66756e-28
-1.6744e-27
-6.13928e-27
1.51301e-27
3.03301e-26
3.21305e-26
-9.20465e-26
-2.84691e-25
-6.6273e-26
1.11475e-24
2.39142e-24
1.44454e-25
-9.49175e-24
-2.17746e-23
-1.37726e-23
4.95227e-23
1.7718e-22
2.89219e-22
1.72735e-22
-4.7941e-22
-1.91813e-21
-4.13022e-21
-6.70404e-21
-8.89659e-21
-9.92076e-21
-9.32071e-21
-7.22028e-21
-4.28778e-21
-1.42973e-21
6.10831e-22
1.53081e-21
1.49335e-21
9.37039e-22
3.1316e-22
-1.00645e-22
-2.43293e-22
-1.99116e-22
-9.10215e-23
-4.93722e-24
3.12587e-23
2.9705e-23
1.41872e-23
1.11304e-24
-3.84775e-24
-2.2447e-50
1.13838e-50
-1.17608e-49
4.97745e-49
-2.17881e-48
8.95403e-48
-3.46598e-47
1.24694e-46
-4.08736e-46
1.17461e-45
-2.68781e-45
3.12574e-45
1.22122e-44
-1.13057e-43
5.55396e-43
-2.09326e-42
6.40861e-42
-1.55398e-41
2.55873e-41
-2.8606e-42
-1.69514e-40
7.26606e-40
-1.74445e-39
1.78421e-39
5.08894e-39
-2.98435e-38
6.81012e-38
-2.83949e-38
-3.47568e-37
1.2101e-36
-1.23619e-36
-4.19842e-36
1.82763e-35
-1.83508e-35
-6.87265e-35
2.55958e-34
-1.02405e-34
-1.31262e-33
2.85123e-33
3.05247e-33
-2.07034e-32
9.91024e-33
1.04411e-31
-1.64148e-31
-4.25159e-31
1.22594e-30
1.50588e-30
-7.33229e-30
-5.19055e-30
3.97776e-29
2.22992e-29
-2.04386e-28
-1.42952e-28
9.91245e-28
1.11259e-27
-4.29965e-27
-8.2683e-27
1.42318e-26
5.24461e-26
-1.24553e-26
-2.58496e-25
-2.76412e-25
7.79742e-25
2.43141e-24
6.00889e-25
-9.44966e-24
-2.04521e-23
-1.65795e-24
8.01777e-23
1.85764e-22
1.21289e-22
-4.11757e-22
-1.49704e-21
-2.47016e-21
-1.54498e-21
3.86514e-21
1.58824e-20
3.44118e-20
5.60044e-20
7.44172e-20
8.3029e-20
7.80018e-20
6.03746e-20
3.57676e-20
1.18028e-20
-5.2778e-21
-1.29377e-20
-1.25626e-20
-7.84947e-21
-2.59367e-21
8.77722e-22
2.06191e-21
1.67705e-21
7.60928e-22
3.5797e-23
-2.66588e-22
-2.51009e-22
-1.18953e-22
-8.55533e-24
3.27761e-23
1.89472e-49
-9.75272e-50
1.0004e-48
-4.25029e-48
1.86703e-47
-7.70903e-47
3.00279e-46
-1.0899e-45
3.62149e-45
-1.0658e-44
2.57267e-44
-3.80523e-44
-6.12933e-44
8.1602e-43
-4.2715e-42
1.65554e-41
-5.15823e-41
1.27001e-40
-2.14041e-40
4.35184e-41
1.33583e-39
-5.87105e-39
1.43065e-38
-1.51584e-38
-3.99154e-38
2.41782e-37
-5.59604e-37
2.53346e-37
2.79666e-36
-9.88918e-36
1.03457e-35
3.37099e-35
-1.49282e-34
1.5303e-34
5.54927e-34
-2.09486e-33
8.77258e-34
1.0676e-32
-2.34263e-32
-2.452e-32
1.6927e-31
-8.30995e-32
-8.51578e-31
1.34963e-30
3.46142e-30
-1.00464e-29
-1.2242e-29
6.00144e-29
4.21791e-29
-3.25421e-28
-1.8168e-28
1.67168e-27
1.16933e-27
-8.10422e-27
-9.11703e-27
3.51164e-26
6.77489e-26
-1.15874e-25
-4.29241e-25
9.79673e-26
2.11053e-24
2.27876e-24
-6.32571e-24
-1.9895e-23
-5.21585e-24
7.67145e-23
1.67595e-22
1.72194e-23
-6.48428e-22
-1.51833e-21
-1.02414e-21
3.27258e-21
1.21103e-20
2.02139e-20
1.3247e-20
-2.964e-20
-1.25633e-19
-2.74107e-19
-4.47421e-19
-5.95377e-19
-6.64672e-19
-6.24382e-19
-4.82844e-19
-2.85289e-19
-9.3044e-20
4.37152e-20
1.04685e-19
1.01137e-19
6.29016e-20
2.05227e-20
-7.33937e-21
-1.67339e-20
-1.35193e-20
-6.0841e-21
-2.37798e-22
2.17813e-21
2.03067e-21
9.54201e-22
6.17848e-23
-2.67454e-22
-1.52788e-48
7.98044e-49
-8.12885e-48
3.46664e-47
-1.52794e-46
6.33737e-46
-2.48312e-45
9.08711e-45
-3.05688e-44
9.18563e-44
-2.31587e-43
3.9932e-43
1.63734e-43
-5.48891e-42
3.11653e-41
-1.24759e-40
3.96317e-40
-9.91803e-40
1.71203e-39
-5.05512e-40
-1.00245e-38
4.52974e-38
-1.12142e-37
1.23146e-37
2.97903e-37
-1.87081e-36
4.39573e-36
-2.15504e-36
-2.14786e-35
7.72336e-35
-8.28226e-35
-2.5828e-34
1.16527e-33
-1.22074e-33
-4.27799e-33
1.63876e-32
-7.18989e-33
-8.29568e-32
1.84024e-31
1.87933e-31
-1.32276e-30
6.66905e-31
6.63709e-30
-1.06111e-29
-2.69246e-29
7.87086e-29
9.50646e-29
-4.69571e-28
-3.27343e-28
2.5449e-27
1.41382e-27
-1.30699e-26
-9.1396e-27
6.33381e-26
7.14059e-26
-2.74161e-25
-5.30648e-25
9.01754e-25
3.35828e-24
-7.34422e-25
-1.64711e-23
-1.79632e-23
4.90355e-23
1.55622e-22
4.32532e-23
-5.95092e-22
-1.31301e-21
-1.64823e-22
5.00934e-21
1.18632e-20
8.27372e-21
-2.47995e-20
-9.35795e-20
-1.58143e-19
-1.08658e-19
2.15348e-19
9.46818e-19
2.08214e-18
3.40989e-18
4.54478e-18
5.07711e-18
4.76895e-18
3.6842e-18
2.17034e-18
6.98485e-19
-3.46361e-19
-8.09113e-19
-7.77385e-19
-4.81027e-19
-1.54725e-19
5.87177e-20
1.29756e-19
1.04067e-19
4.64125e-20
1.40307e-21
-1.70114e-20
-1.56922e-20
-7.30554e-21
-4.15185e-22
2.08602e-21
1.17388e-47
-6.22109e-48
6.29306e-47
-2.69365e-46
1.19113e-45
-4.96174e-45
1.95501e-44
-7.2095e-44
2.45271e-43
-7.50709e-43
1.96249e-42
-3.76846e-42
1.23975e-42
3.3946e-41
-2.14802e-40
8.93089e-40
-2.89869e-39
7.38191e-39
-1.30606e-38
5.06474e-39
7.14079e-38
-3.32815e-37
8.38008e-37
-9.54281e-37
-2.10834e-36
1.37885e-35
-3.29233e-35
1.74416e-35
1.57016e-34
-5.74971e-34
6.32683e-34
1.88306e-33
-8.67044e-33
9.29269e-33
3.14019e-32
-1.22222e-31
5.62463e-32
6.14234e-31
-1.37869e-30
-1.37043e-30
9.85459e-30
-5.11058e-30
-4.93048e-29
7.95813e-29
1.99576e-28
-5.8806e-28
-7.03289e-28
3.50344e-27
2.41967e-27
-1.89772e-26
-1.04803e-26
9.74388e-26
6.80796e-26
-4.72023e-25
-5.33174e-25
2.041e-24
3.96311e-24
-6.69094e-24
-2.5054e-23
5.23301e-24
1.22566e-22
1.35062e-22
-3.62293e-22
-1.16082e-21
-3.41853e-22
4.39987e-21
9.81035e-21
1.46688e-21
-3.68718e-20
-8.83883e-20
-6.37983e-20
1.78664e-19
6.88964e-19
1.17994e-18
8.50627e-19
-1.47519e-18
-6.77737e-18
-1.5039e-17
-2.47212e-17
-3.30084e-17
-3.69021e-17
-3.46591e-17
-2.67453e-17
-1.57028e-17
-4.97725e-18
2.61874e-18
5.95805e-18
5.68981e-18
3.50082e-18
1.10805e-18
-4.48383e-19
-9.58863e-19
-7.62923e-19
-3.3686e-19
-6.84079e-21
1.26685e-19
1.15531e-19
5.32391e-20
2.55725e-21
-1.55124e-20
-8.56648e-47
4.6063e-47
-4.62753e-46
1.98796e-45
-8.8187e-45
3.68882e-44
-1.46123e-43
5.42745e-43
-1.86567e-42
5.80499e-42
-1.56485e-41
3.2561e-41
-2.70381e-41
-1.8867e-40
1.3913e-39
-6.05156e-39
2.01196e-38
-5.22091e-38
9.47551e-38
-4.55805e-38
-4.81029e-37
2.32151e-36
-5.95253e-36
7.03388e-36
1.40919e-35
-9.65075e-35
2.34446e-34
-1.33987e-34
-1.08912e-33
4.06826e-33
-4.59904e-33
-1.30219e-32
6.13164e-32
-6.73179e-32
-2.18792e-31
8.66565e-31
-4.18888e-31
-4.32077e-30
9.82322e-30
9.47643e-30
-6.97917e-29
3.72973e-29
3.48087e-28
-5.67751e-28
-1.40552e-27
4.17818e-27
4.94173e-27
-2.48544e-26
-1.69825e-26
1.34553e-25
7.37737e-26
-6.90712e-25
-4.81842e-25
3.34486e-24
3.78439e-24
-1.44477e-23
-2.81417e-23
4.7203e-23
1.77725e-22
-3.53313e-23
-8.67172e-22
-9.65868e-22
2.54403e-21
8.23376e-21
2.56808e-21
-3.09174e-20