/*--------------------------------*- C++ -*----------------------------------*\
  =========                 |
  \\      /  F ield         | OpenFOAM: The Open Source CFD Toolbox
   \\    /   O peration     | Website:  https://openfoam.org
    \\  /    A nd           | Version:  13
     \\/     M anipulation  |
\*---------------------------------------------------------------------------*/
FoamFile
{
    format      ascii;
    class       volScalarField;
    location    "1";
    object      T;
}
// * * * * * * * * * * * * * * * * * * * * * * * * * * * * * * * * * * * * * //

dimensions      [0 0 0 1 0 0 0];

internalField   nonuniform List<scalar> 
10000
(
0
0
0
0
0
0
0
0
0
0
0
0
0
0
0
0
0
0
0
0
0
0
0
0
0
0
0
0
0
0
0
0
0
0
0
0
0
0
0
0
0
0
0
0
0
0
0
0
0
0
0
0
0
0
0
0
0
0
0
0
0
0
0
0
0
0
0
0
0
0
0
0
0
0
0
0
0
0
0
0
0
0
0
0
0
0
0
0
0
0
0
0
0
0
0
0
0
0
0
0
0
0
0
0
0
0
0
0
0
0
0
0
0
0
0
0
0
0
0
0
0
0
0
0
0
0
0
0
0
0
0
0
0
0
0
0
0
0
0
0
0
0
0
0
0
0
0
0
0
0
0
0
0
0
0
0
0
0
0
0
0
0
0
0
0
0
0
0
0
0
0
0
0
0
0
0
0
0
0
0
0
0
0
0
0
0
0
0
0
0
0
0
0
0
0
0
0
0
0
0
0
0
0
0
0
0
0
0
0
0
0
0
0
0
0
0
0
0
0
0
0
0
0
0
0
0
0
0
0
0
0
0
0
0
0
0
0
0
0
0
0
0
0
0
0
0
0
0
0
0
0
0
0
0
0
0
0
0
0
0
0
0
0
0
0
0
0
0
0
0
0
0
0
0
0
0
0
0
0
0
0
0
0
0
0
0
0
0
0
0
0
0
0
0
0
0
0
0
0
0
0
0
0
0
0
0
0
0
0
0
0
0
0
0
0
0
0
0
0
0
0
0
0
0
0
0
0
0
0
0
0
0
0
0
0
0
0
0
0
0
0
0
0
0
0
0
0
0
0
0
0
0
0
0
0
0
0
0
0
0
0
0
0
0
0
0
0
0
0
0
0
0
0
0
0
0
0
0
0
0
0
0
0
0
0
0
0
0
0
0
0
0
0
0
0
0
0
0
0
0
0
0
0
0
0
0
0
0
0
0
0
0
0
0
0
0
0
0
0
0
0
0
0
0
0
0
0
0
0
0
0
0
0
0
0
0
0
0
0
0
0
0
0
0
0
0
0
0
0
0
0
0
0
0
0
0
0
0
0
0
0
0
0
0
0
0
0
0
0
0
0
0
0
0
0
0
0
0
0
0
0
0
0
0
0
0
0
0
0
0
0
0
0
0
0
0
0
0
0
0
0
0
0
0
0
0
0
0
0
0
0
0
0
0
0
0
0
0
0
0
0
0
0
0
0
0
0
0
0
0
0
0
0
0
0
0
0
0
0
0
0
0
0
0
0
0
0
0
0
0
0
0
0
0
0
0
0
0
0
0
0
0
0
0
0
0
0
0
0
0
0
0
0
0
0
0
0
0
0
0
0
0
0
0
0
0
0
0
0
0
0
0
0
0
0
0
0
0
0
0
0
0
0
0
0
0
0
0
0
0
0
0
0
0
0
0
0
0
0
0
0
0
0
0
0
0
0
0
0
0
0
0
0
0
0
0
0
0
0
0
0
0
0
0
0
0
0
0
0
0
0
0
0
0
0
0
0
0
0
0
0
0
0
0
0
0
0
0
0
0
0
0
0
0
0
0
0
0
0
0
0
0
0
0
0
0
0
0
0
0
0
0
0
0
0
0
0
0
0
0
0
0
0
0
0
0
0
0
0
0
0
0
0
0
0
0
0
0
0
0
0
0
0
0
0
0
0
0
0
0
0
0
0
0
0
0
0
0
0
0
0
0
0
0
0
0
0
0
0
0
0
0
0
0
0
0
0
0
0
0
0
0
0
0
0
0
0
0
0
0
0
0
0
0
0
0
0
0
0
0
0
0
0
0
0
0
0
0
0
0
0
0
0
0
0
0
0
0
0
0
0
0
0
0
0
0
0
0
0
0
0
0
0
0
0
0
0
0
0
0
0
0
0
0
0
0
0
0
0
0
0
0
0
0
0
0
0
0
0
0
0
0
0
0
0
0
0
0
0
0
0
0
0
0
0
0
0
0
0
0
0
0
0
0
0
0
0
0
0
0
0
0
0
0
0
0
0
0
0
0
0
0
0
0
0
0
0
0
0
0
0
0
0
0
0
0
0
0
0
0
0
0
0
0
0
0
0
0
0
0
0
0
0
0
0
0
0
0
0
0
0
0
0
0
0
0
0
0
0
0
0
0
0
0
0
0
0
0
0
0
0
0
0
0
0
0
0
0
0
0
0
0
0
0
0
0
0
0
0
0
0
0
0
0
0
0
0
0
0
0
0
0
0
0
0
0
0
0
0
0
0
0
0
0
0
0
0
0
0
0
0
0
0
0
0
0
0
0
0
0
0
0
0
0
0
0
0
0
0
0
0
0
0
0
0
0
0
0
0
0
0
0
0
0
0
0
0
0
0
0
0
0
0
0
0
0
0
0
0
0
0
0
0
0
0
0
0
0
0
0
0
0
0
0
0
0
0
0
0
0
0
0
0
0
0
0
0
0
0
0
0
0
0
0
0
0
0
0
0
0
0
0
0
0
0
0
0
0
0
0
0
0
0
0
0
0
0
0
0
0
0
0
0
0
0
0
0
0
0
0
0
0
0
0
0
0
0
0
0
0
0
0
0
0
0
0
0
0
0
0
0
0
0
0
0
0
0
0
0
0
0
0
0
0
0
0
0
0
0
0
0
0
0
0
0
0
0
0
0
0
0
0
0
0
0
0
0
0
0
0
0
0
0
0
0
0
0
0
0
0
0
0
0
0
0
0
0
0
0
0
0
0
0
0
0
0
0
0
0
0
0
0
0
0
0
0
0
0
0
0
0
0
0
0
0
0
0
0
0
0
0
0
0
0
0
0
0
0
0
0
0
0
0
0
0
0
0
0
0
0
0
0
0
0
0
0
0
0
0
0
0
0
0
0
0
0
0
0
0
0
0
0
0
0
0
0
0
0
0
0
0
0
0
0
0
0
0
0
0
0
0
0
0
0
0
0
0
0
0
0
0
0
0
0
0
0
0
0
0
0
0
0
0
0
0
0
0
0
0
0
0
0
0
0
0
0
0
0
0
0
0
0
0
0
0
0
0
0
0
0
0
0
0
0
0
0
0
0
0
0
0
0
0
0
0
0
0
0
0
0
0
0
0
0
0
0
0
0
0
0
0
0
0
0
0
0
0
0
0
0
0
0
0
0
0
0
0
0
0
0
0
0
0
0
0
0
0
0
0
0
0
0
0
0
0
0
0
0
0
0
0
0
0
0
0
0
0
0
0
0
0
0
0
0
0
0
0
0
0
0
0
0
0
0
0
0
0
0
0
0
0
0
0
0
0
0
0
0
0
0
0
0
0
0
0
0
0
0
0
0
0
0
0
0
0
0
0
0
0
0
0
0
0
0
0
0
0
0
0
0
0
0
0
0
0
0
0
0
0
0
0
0
0
0
0
0
0
0
0
0
0
0
0
0
0
0
0
0
0
0
0
0
0
0
0
0
0
0
0
0
0
0
0
0
0
0
0
0
0
0
0
0
0
0
0
0
0
0
0
0
0
0
0
0
0
0
0
0
0
0
0
0
0
0
0
0
0
0
0
0
0
0
0
0
0
0
0
0
0
0
0
0
0
0
0
0
0
0
0
0
0
0
0
0
0
0
0
0
0
0
0
0
0
0
0
0
0
0
0
0
0
0
0
0
0
0
0
0
0
0
0
0
0
0
0
0
0
0
0
0
0
0
0
0
0
0
0
0
0
0
0
0
0
0
0
0
0
0
0
0
0
0
0
0
0
0
0
0
0
0
0
0
0
0
0
0
0
0
0
0
0
0
0
0
0
0
0
0
0
0
0
0
0
0
0
0
0
0
0
0
0
0
0
0
0
0
0
0
0
0
0
0
0
0
0
0
0
0
0
0
0
0
0
0
0
0
0
0
0
0
0
0
0
0
0
0
0
0
0
0
0
0
0
0
0
0
0
0
0
0
0
0
0
0
0
0
0
0
0
0
0
0
0
0
0
0
0
0
0
0
0
0
0
0
0
0
0
0
0
0
0
0
0
0
0
0
0
0
0
0
0
0
0
0
0
0
0
0
0
0
0
0
0
0
0
0
0
0
0
0
0
0
0
0
0
0
0
0
0
0
0
0
0
0
0
0
0
0
0
0
0
0
0
0
0
0
0
0
0
0
0
0
0
0
0
0
0
0
0
0
0
0
0
0
0
0
0
0
0
0
0
0
0
0
0
0
0
0
0
0
0
0
0
0
0
0
0
0
0
0
0
0
0
0
0
0
0
0
0
0
0
0
0
0
0
0
0
0
0
0
0
0
0
0
0
0
0
0
0
0
0
0
0
0
0
0
0
0
0
0
0
0
0
0
0
0
0
0
0
0
0
0
0
0
0
0
0
0
0
0
0
0
0
0
0
0
0
0
0
0
0
0
0
0
0
0
0
0
0
0
0
0
0
0
0
0
0
0
0
0
0
0
0
0
0
0
0
0
0
0
0
0
0
0
0
0
0
0
0
0
0
0
0
0
0
0
0
0
0
0
0
0
0
0
0
0
0
0
0
0
0
0
0
0
0
0
0
0
0
0
0
0
0
0
0
0
0
0
0
0
0
0
0
0
0
0
0
0
0
0
0
0
0
0
0
0
0
0
0
0
0
0
0
0
0
0
0
0
0
0
0
0
0
0
0
0
0
0
0
0
0
0
0
0
0
0
0
0
0
0
0
0
0
0
0
0
0
0
0
0
0
0
0
0
0
0
0
0
0
0
0
0
0
0
0
0
0
0
0
0
0
0
0
0
0
0
0
0
0
0
0
0
0
0
0
0
0
0
0
0
0
0
0
0
0
0
0
0
0
0
0
0
0
0
0
0
0
0
0
0
0
0
0
0
0
0
0
0
0
0
0
0
0
0
0
0
0
0
0
0
0
0
0
0
0
0
0
0
0
0
0
0
0
0
0
0
0
0
0
0
0
0
0
0
0
0
0
0
0
0
0
0
0
0
0
0
0
0
0
0
0
0
0
0
0
0
0
0
0
0
0
0
0
0
0
0
0
0
0
0
0
0
0
0
0
0
0
0
0
0
0
0
0
0
0
0
0
0
0
0
0
0
0
0
0
0
0
0
0
0
0
0
0
0
0
0
0
0
0
0
0
0
0
0
0
0
0
0
0
0
0
0
0
0
0
0
0
0
0
0
0
0
0
0
0
0
0
0
0
0
0
0
0
0
0
0
0
0
0
0
0
0
0
0
0
0
0
0
0
0
0
0
0
0
0
0
0
0
0
0
0
0
0
0
0
0
0
0
0
0
0
0
0
0
0
0
0
0
0
0
0
0
0
0
0
0
0
0
0
0
0
0
0
0
0
0
0
0
0
0
0
0
0
0
0
0
0
0
0
0
0
0
0
0
0
0
0
0
0
0
0
0
0
0
0
0
0
0
0
0
0
0
0
0
0
0
0
0
0
0
0
0
0
0
0
0
0
0
0
0
0
0
0
0
0
0
0
0
0
0
0
0
0
0
0
0
0
0
0
0
0
0
0
0
0
0
0
0
0
0
0
0
0
0
0
0
0
0
0
0
0
0
0
0
0
0
0
0
0
0
0
0
0
0
-1.55631e-321
2.16104e-320
-1.23082e-319
1.31753e-318
-6.59148e-319
-4.79817e-319
5.9776e-319
-9.33407e-318
1.02912e-316
-4.85856e-317
-3.99249e-317
-1.74131e-317
1.16203e-318
4.98562e-318
3.48977e-317
-4.68199e-317
2.78253e-317
9.48737e-318
-9.53418e-318
-8.10704e-318
-3.10123e-318
5.77346e-318
-5.78618e-317
2.52582e-317
2.1177e-317
6.865e-318
-1.15874e-318
7.51009e-319
1.2658e-319
-6.31564e-320
2.2477e-319
-9.4915e-320
-1.29608e-319
4.29639e-320
-3.60026e-320
9.58487e-322
6.7934e-321
4.1798e-321
-2.31717e-321
0
0
0
0
0
0
0
0
0
0
0
0
0
0
0
0
0
0
0
0
0
0
0
0
0
0
0
0
0
0
0
0
0
0
0
0
0
0
0
0
0
0
8.62145e-321
-8.78646e-320
8.36947e-319
-1.31583e-317
1.49537e-316
-1.39235e-315
7.28546e-315
-9.89763e-314
5.24049e-313
5.53752e-313
-4.48724e-311
2.69027e-310
-2.8251e-309
2.33306e-309
-7.89659e-309
-1.04971e-308
1.13281e-308
9.24771e-310
9.00456e-308
-1.30726e-306
1.71884e-305
-1.44382e-304
1.45566e-303
-1.31346e-302
9.7401e-302
-1.54208e-301
-7.66977e-302
1.01087e-301
4.88568e-302
4.3168e-303
-3.98156e-303
-2.5218e-303
-6.33477e-303
4.0904e-302
-2.58383e-302
-8.46669e-303
2.98711e-302
-2.34157e-301
1.0215e-301
1.29714e-301
5.51407e-302
-4.7662e-302
-2.05757e-302
-1.16696e-302
-9.70827e-303
-3.38733e-303
4.23466e-303
2.89094e-303
8.13772e-304
-2.0183e-304
-2.56777e-304
-1.88727e-306
5.62418e-305
3.43983e-305
1.04229e-305
9.18504e-307
-3.35058e-306
-1.91155e-306
-4.63936e-307
4.48386e-308
-1.22881e-308
1.47465e-307
-1.42461e-308
-1.98977e-308
-2.8605e-309
3.09455e-309
1.22383e-309
-8.05434e-311
-1.1306e-310
-2.42229e-311
1.05103e-312
3.02218e-312
-2.00693e-312
3.0847e-312
-6.43401e-313
0
0
0
0
0
0
0
0
0
0
3.65609e-322
-1.82409e-320
2.14222e-319
-2.34804e-318
6.67137e-319
2.23492e-317
3.00064e-317
-3.73616e-316
8.06737e-315
-1.79172e-313
3.83488e-312
-7.16039e-311
1.17602e-309
-1.83957e-308
2.76415e-307
-3.97609e-306
6.51448e-305
-6.38927e-304
6.52574e-303
-9.73581e-302
7.34118e-301
-1.01658e-299
1.00963e-298
-8.44027e-298
4.27292e-297
3.07564e-296
-3.80742e-295
3.04069e-294
-1.46599e-293
4.09885e-294
1.75046e-293
-1.42299e-292
1.55828e-291
-7.77003e-292
-8.75149e-294
-5.8692e-291
5.85563e-290
-9.749e-289
7.41388e-288
-3.61382e-287
-2.7977e-287
1.04813e-286
2.88303e-288
-3.00729e-287
-1.78317e-287
-3.76439e-288
-5.73086e-288
8.5168e-287
-4.66373e-287
-2.81094e-287
1.36179e-287
-3.67073e-286
2.16756e-286
1.80895e-286
2.27175e-288
-3.51584e-287
-1.45149e-287
-6.5208e-288
-6.90779e-289
4.14441e-288
2.65882e-288
6.95748e-289
1.17816e-289
-2.83829e-289
-7.07711e-290
3.00602e-290
2.1495e-290
1.04139e-290
2.23445e-291
-1.33945e-291
-1.50815e-291
-4.9585e-292
-5.66794e-293
4.61852e-293
2.53741e-293
8.83034e-293
-9.69404e-293
9.9843e-294
7.40481e-294
4.77368e-294
2.96243e-295
-2.71082e-295
-9.31665e-296
-4.74101e-297
5.42865e-297
1.71592e-297
-2.28287e-298
5.36004e-297
-2.5104e-297
-2.29591e-297
-1.41634e-319
6.55137e-318
-1.01723e-316
2.56216e-315
-3.24924e-314
7.84992e-313
-1.92726e-311
2.12632e-310
-4.84925e-309
5.70585e-308
-1.26433e-306
1.19773e-305
-2.52129e-304
5.47409e-303
-6.58097e-303
5.53076e-302
-3.5025e-302
-1.35423e-301
2.41592e-300
-4.68052e-299
8.9229e-298
1.38866e-296
-2.6489e-295
4.50846e-294
-7.45889e-293
1.19529e-291
-2.29149e-290
3.5934e-289
-5.42697e-288
7.94533e-287
-1.12568e-285
4.72146e-285
-5.69658e-284
7.46441e-283
-9.39159e-282
1.13732e-280
9.20867e-281
-1.55182e-279
1.25714e-278
3.39081e-278
-4.15215e-278
1.52477e-277
-1.71728e-276
1.66745e-275
-7.49832e-276
-2.16549e-277
-5.04563e-275
3.07892e-274
-1.48748e-273
-2.42254e-273
8.96172e-272
-2.9081e-271
-3.39065e-270
1.97204e-270
1.41951e-270
3.70258e-271
-5.58325e-272
-9.40723e-272
8.40596e-272
-1.29994e-270
6.43346e-271
4.88184e-271
1.39352e-271
-2.61349e-271
1.26945e-271
-6.67562e-272
1.51228e-271
-7.60737e-273
-1.08865e-272
-1.02994e-272
7.83414e-273
4.40274e-275
-4.57362e-274
-1.28004e-274
2.12399e-276
1.48715e-276
7.73548e-276
1.94521e-276
-3.92872e-277
-4.4519e-277
1.92242e-278
-9.05421e-278
-5.90953e-279
9.8243e-279
1.08168e-278
-1.24518e-277
7.73983e-278
3.42227e-278
5.40548e-279
-6.90433e-280
-5.24121e-280
-1.38022e-280
-1.06233e-280
8.57192e-281
4.75169e-281
5.43677e-282
1.08689e-281
-1.10489e-281
-3.47552e-282
-4.1784e-284
3.8362e-304
-8.15223e-303
1.68299e-301
-3.65726e-300
7.68094e-299
-1.53136e-297
2.84335e-296
-4.72637e-295
6.31719e-294
-1.41208e-292
1.85739e-291
-4.00159e-290
8.67854e-289
-1.23807e-287
1.32169e-286
-1.27805e-286
7.517e-286
-1.55211e-284
6.5649e-285
2.41787e-283
-3.44879e-282
6.13684e-281
-1.08316e-279
1.30973e-278
-1.24509e-277
4.96009e-277
-7.97375e-276
-2.3802e-274
3.54601e-273
-4.70414e-272
1.20294e-270
-1.61142e-269
3.23386e-268
-3.50032e-267
2.38074e-266
-1.59277e-265
1.6908e-264
-4.81699e-264
1.32032e-263
4.82396e-263
-5.66564e-262
5.61233e-261
2.85111e-260
-1.63328e-260
-1.20034e-260
-5.31369e-261
5.07949e-261
-2.89674e-260
-6.14675e-260
3.82662e-258
-6.02596e-257
6.75733e-256
-3.44311e-255
4.09449e-255
1.13632e-255
-9.44656e-256
-9.17114e-256
-1.80913e-255
-7.72438e-256
1.16995e-255
7.59352e-256
1.8851e-256
1.78777e-256
-2.70484e-256
-2.10592e-256
6.67553e-257
1.18898e-256
4.88306e-257
6.28515e-259
-6.69955e-258
-6.21489e-258
-1.82634e-258
-1.62097e-260
4.10323e-259
1.24165e-259
1.18115e-260
-3.40919e-261
2.74304e-261
6.98108e-262
-1.48587e-262
-2.65781e-262
-6.13586e-263
-1.59284e-261
8.0659e-262
6.32933e-262
1.91253e-262
-4.24498e-263
4.74734e-263
-9.9844e-264
-2.22549e-264
1.09514e-264
-6.54738e-265
1.19817e-264
4.83775e-265
4.4295e-266
-5.31862e-266
-2.64476e-266
-2.61043e-267
2.4118e-267
3.32504e-268
-3.2352e-290
4.64618e-288
-6.47552e-287
1.56885e-285
-3.84738e-284
9.27587e-283
-2.19861e-281
5.12174e-280
-1.17227e-278
1.48646e-277
-3.19326e-276
6.92103e-275
-6.84694e-274
1.36849e-272
-2.79937e-271
5.60861e-270
-5.10716e-269
3.33074e-269
1.78062e-269
-1.16612e-268
2.10814e-267
-3.69211e-266
6.32135e-265
-1.05774e-263
1.72897e-262
-2.75946e-261
4.29808e-260
-6.52989e-259
4.89657e-258
-6.86833e-257
9.81943e-256
-1.36236e-254
-7.19307e-254
1.02455e-252
-1.19299e-251
1.34107e-250
-1.44296e-249
2.49288e-249
-1.36989e-248
-3.21698e-247
3.47244e-246
-9.22273e-246
-3.14198e-245
3.00019e-244
-2.72338e-244
3.42171e-244
-2.09183e-243
1.66334e-242
-1.04504e-242
-8.42447e-243
3.13257e-242
-2.85548e-241
2.01142e-240
-6.46301e-241
-2.55356e-240
-2.25328e-241
-5.30902e-241
1.19026e-240
9.74551e-241
2.11924e-240
-8.60196e-241
-9.24638e-241
-4.04053e-241
-7.45569e-242
1.1465e-241
6.18902e-242
2.09457e-242
-6.94659e-243
-3.18922e-243
-4.1567e-243
-1.17999e-243
5.23802e-245
2.8449e-244
-6.36405e-245
-1.08441e-245
1.0602e-245
4.99618e-246
1.72509e-247
-6.04914e-247
-2.35055e-247
-3.29762e-248
2.01054e-247
-1.26017e-246
2.56625e-247
2.38477e-247
4.45849e-247
1.82349e-247
4.60194e-248
-5.10533e-248
-1.75126e-248
-9.40893e-250
1.04321e-249
4.08377e-250
-3.8527e-251
-4.94227e-251
-1.14716e-251
6.06287e-253
1.0828e-252
-4.70355e-253
4.35586e-253
4.46838e-274
-6.31311e-273
1.15494e-271
-9.24487e-271
-2.4352e-269
1.41533e-267
-3.36218e-266
7.06446e-265
-1.29352e-263
2.83171e-262
-4.69087e-261
8.85665e-260
-1.63388e-258
2.48714e-257
-4.08188e-256
6.64373e-255
-1.01893e-253
1.1936e-252
-8.6686e-252
9.05915e-251
-1.19452e-249
1.44788e-248
-1.41807e-247
-9.05974e-247
6.2538e-247
1.10338e-245
-1.72666e-245
-5.37547e-244
1.83305e-242
-2.34957e-241
2.68606e-240
-2.87586e-239
3.63734e-238
-1.6571e-237
1.86389e-236
3.53776e-236
-1.3882e-234
1.44675e-233
-4.52279e-233
-8.34516e-233
2.70453e-231
-1.16091e-230
1.24993e-230
1.12433e-229
-6.28853e-230
6.09635e-231
2.37243e-229
2.04738e-227
-9.24296e-226
1.70544e-225
1.8139e-226
-1.43763e-225
9.6959e-226
1.18486e-225
-4.73426e-226
5.44963e-227
-9.20177e-226
-1.34114e-225
-2.39641e-226
6.35992e-226
5.63156e-226
1.3936e-226
-7.16134e-228
-7.46597e-227
-3.42194e-227
-1.73665e-227
6.44487e-228
2.94882e-228
4.2629e-228
6.40727e-229
-4.28205e-229
6.8452e-229
3.24895e-229
-1.37574e-229
-8.62334e-230
2.63051e-230
2.55445e-230
-7.13227e-230
-1.88769e-230
1.96387e-230
1.35638e-230
1.30565e-230
2.00687e-232
-1.08742e-231
-6.26385e-232
-1.83741e-232
1.71154e-232
8.10187e-233
1.17346e-233
-2.41263e-234
-1.04183e-234
-1.20895e-234
7.04165e-236
9.47963e-236
4.23228e-236
-3.76633e-237
-7.65733e-237
-2.04076e-237
8.4158e-238
4.5507e-238
-7.13584e-259
8.81923e-258
-2.11105e-256
5.08526e-255
-9.04967e-254
1.37981e-254
1.40667e-251
-3.25202e-250
7.16544e-249
-1.62297e-247
2.25566e-246
-4.60864e-245
9.41489e-244
-1.88439e-242
2.93533e-241
-5.5798e-240
7.92776e-239
-1.43862e-237
1.2675e-236
-8.11011e-236
1.30066e-234
-2.17929e-233
3.5565e-232
3.57596e-231
-2.02295e-231
-1.17359e-230
1.59057e-229
-2.31522e-228
-6.28872e-228
1.09776e-226
-1.43289e-225
1.82532e-224
-6.39763e-223
3.21265e-222
-1.92977e-221
2.07456e-220
1.92487e-219
-2.12886e-218
4.79708e-218
-3.47893e-217
-3.03623e-216
1.77046e-215
-4.11836e-215
1.70864e-214
-5.9747e-215
-4.79112e-215
7.36224e-213
-1.618e-211
1.42889e-210
-5.23456e-211
-6.23339e-211
2.89267e-210
-9.49666e-211
-1.50899e-210
-2.23859e-211
-1.64506e-210
-7.07191e-211
8.45425e-211
9.00414e-211
3.91616e-211
7.39077e-212
-1.05688e-211
-8.1211e-212
-2.81924e-212
-8.44819e-213
1.5043e-212
-1.93324e-213
7.8752e-213
3.45411e-213
1.77548e-213
7.90664e-214
-1.92663e-214
-2.45668e-214
-6.79463e-216
2.2033e-215
-7.04941e-215
-7.55655e-215
4.55588e-215
6.6327e-215
2.72878e-215
1.01678e-215
-5.26622e-216
-1.86982e-216
-5.33165e-217
1.76274e-217
1.52753e-217
1.46454e-218
2.45158e-218
5.52999e-220
-1.30064e-219
-1.43213e-219
5.52994e-220
3.23341e-220
2.85281e-221
-2.2055e-221
-5.49292e-222
3.87277e-224
1.24225e-222
3.48904e-223
-2.00821e-224
-1.35623e-243
2.29612e-242
-3.63811e-241
6.73257e-240
-1.55272e-238
2.88042e-237
-4.93354e-236
4.24194e-235
-1.63874e-234
-2.6917e-232
8.93131e-231
-1.21081e-229
1.10622e-228
-1.70991e-227
4.16209e-226
-5.7609e-225
6.26467e-224
-9.89518e-223
2.97301e-221
-2.97696e-220
4.06129e-219
-5.53523e-218
1.03963e-216
-1.34199e-215
2.01721e-214
-1.92277e-213
1.13182e-212
-8.76905e-213
1.84542e-210
-1.6332e-210
-1.60009e-209
9.34245e-209
-1.02559e-207
-3.33508e-207
8.68505e-206
-9.32589e-205
3.87076e-204
-3.45119e-203
3.18124e-202
-1.34073e-201
-8.03109e-202
1.01199e-200
-2.12601e-200
1.18498e-199
-1.08392e-199
1.57919e-198
-1.75101e-197
1.50793e-196
-1.07376e-195
2.51728e-195
-5.81938e-196
-3.92682e-195
5.21476e-196
2.54942e-195
1.00719e-195
-2.69053e-196
-5.53374e-196
-3.1851e-196
-6.9936e-197
1.45389e-197
9.98511e-197
-4.33546e-197
2.29423e-197
-4.39177e-198
-1.81439e-197
1.29963e-197
-2.09545e-197
1.64596e-198
-1.7692e-198
-6.0046e-199
7.10971e-199
-1.80416e-199
-2.20963e-199
-7.24348e-201
1.03921e-199
-1.41236e-199
1.8389e-199
-2.49437e-200
-3.63094e-200
-5.90543e-201
1.81708e-200
2.38391e-201
3.51469e-203
-2.7658e-202
8.14721e-204
1.77799e-202
6.6116e-203
2.35942e-203
6.72725e-204
-7.52985e-205
-1.47045e-204
-2.42923e-205
8.00655e-206
5.18181e-206
-5.26168e-207
-9.34643e-207
-2.44703e-207
-5.78658e-209
2.39287e-208
6.37264e-209
-1.04561e-228
2.0828e-227
-3.90418e-226
8.99711e-225
-1.50401e-223
3.33133e-222
-7.33806e-221
1.58622e-219
-3.36418e-218
6.99783e-217
-1.42707e-215
2.85202e-214
8.19474e-214
-2.03789e-212
-4.77345e-211
9.37868e-210
-2.41053e-209
2.797e-207
-4.96594e-206
1.71854e-205
-2.35073e-204
-3.74313e-203
6.29915e-202
-2.93638e-202
-2.33439e-199
3.47153e-198
-3.11607e-197
4.07292e-196
-5.29549e-195
4.95947e-195
-2.38627e-194
2.97956e-193
-3.35898e-192
-9.48687e-192
1.2465e-190
-1.24499e-189
1.20283e-188
-7.47042e-188
3.21063e-187
-2.52442e-186
-4.90685e-187
1.03117e-185
-2.71915e-185
1.10761e-184
-5.9011e-185
-4.43459e-183
1.9099e-182
-2.42129e-181
8.13082e-181
-1.78231e-180
-1.05975e-180
3.69378e-180
-1.87031e-181
-1.61104e-181
-4.65574e-181
-8.68359e-181
1.43104e-181
1.43271e-181
1.31964e-181
-1.72874e-181
1.60829e-182
1.72024e-181
-9.15786e-182
-1.1481e-181
-3.79069e-182
2.31973e-182
2.30988e-182
1.10069e-182
8.52588e-184
-1.52258e-183
-1.36942e-183
-9.80774e-185
1.55899e-184
9.04693e-185
-1.4846e-185
1.39274e-184
-1.00659e-184
-1.48177e-184
7.9307e-185
4.55127e-185
-1.87427e-186
8.00077e-186
-1.88657e-186
2.79802e-187
8.54158e-188
-2.51557e-188
4.23589e-188
-1.12369e-188
-6.21188e-189
-1.25082e-189
-3.26032e-190
-3.33954e-190
-8.12471e-192
1.16906e-191
4.08115e-192
-3.90511e-193
-5.94255e-193
-1.97375e-193
-2.51344e-194
5.10042e-194
1.17854e-213
-2.29712e-212
5.33294e-211
-1.24105e-209
2.46784e-208
-6.95414e-207
1.51422e-205
-3.20928e-204
8.87931e-203
-1.34205e-201
3.64629e-200
-7.20894e-199
7.61342e-198
-1.93176e-196
2.68346e-195
-3.24205e-194
5.57646e-193
-5.93505e-192
1.48024e-190
-1.74079e-189
1.6883e-188
-2.54494e-187
2.06689e-186
-5.21668e-185
5.04368e-184
-3.77693e-183
4.88099e-182
-2.63697e-181
6.93682e-180
-4.96997e-179
2.18867e-178
8.05017e-178
-1.03495e-176
1.07166e-175
3.79068e-176
-9.18843e-175
8.09732e-174
-7.08927e-173
5.8517e-172
-4.5323e-171
1.05281e-170
-6.13685e-171
2.44983e-170
-9.12524e-170
-1.7297e-169
2.2278e-168
-1.24891e-167
7.61662e-167
-3.50907e-166
8.40149e-166
2.72977e-165
-1.83293e-165
-1.85952e-165
-7.23206e-166
1.13601e-165
1.08069e-165
-3.28207e-166
-7.1436e-166
-4.06345e-166
9.34439e-167
6.86413e-167
1.705e-166
6.73981e-167
-4.56805e-168
-2.00722e-167
-1.15237e-167
-2.61753e-168
7.98951e-169
9.32437e-169
2.69274e-169
6.00483e-169
-3.24502e-168
4.01774e-168
-2.12041e-168
8.57888e-169
3.12449e-169
-4.34488e-170
-3.03224e-169
-1.134e-169
1.55878e-171
2.91423e-170
1.16334e-170
-1.55409e-171
-1.003e-171
-3.8396e-172
3.75659e-173
9.15078e-173
2.66188e-173
2.30818e-174
-2.39229e-174
-8.94952e-175
-2.47916e-176
3.83607e-176
5.13361e-176
-2.90365e-177
-4.03838e-177
-8.20238e-178
-2.06264e-179
8.19072e-179
4.23896e-179
5.3823e-199
-1.01556e-197
-5.46129e-197
7.14384e-195
-3.48612e-193
1.03538e-191
-2.21464e-190
4.9712e-189
-1.09036e-187
2.2564e-186
-4.04948e-185
6.97414e-184
-1.23694e-182
2.02739e-181
-3.38667e-180
5.51128e-179
-8.13219e-178
1.15739e-176
-1.59232e-175
2.31263e-174
-3.26155e-173
3.98228e-172
-5.19e-171
5.70861e-170
-6.81248e-169
7.78313e-168
-8.35683e-167
8.65925e-166
-8.32422e-165
7.69113e-164
-6.97752e-163
5.78485e-162
-4.80011e-161
2.5014e-160
-1.65895e-159
9.38948e-159
-5.87618e-158
3.19392e-157
-1.19054e-156
4.98048e-156
-1.25885e-155
4.84288e-155
-1.52881e-154
9.60831e-155
9.31712e-154
-9.78766e-153
6.30648e-152
-2.62529e-151
5.72545e-151
3.03697e-151
-3.88413e-150
2.34534e-150
2.33064e-150
3.56763e-151
-8.00733e-151
-1.10097e-150
-5.54636e-151
1.25219e-151
1.33873e-151
2.27928e-151
2.31907e-151
7.77082e-152
1.85426e-152
-1.32449e-151
-9.40971e-152
-3.10562e-152
4.48852e-152
8.84703e-152
5.2783e-153
-4.02962e-152
-2.54041e-152
-2.01592e-153
6.75181e-153
5.20222e-153
7.22718e-154
-8.19347e-154
-5.41967e-154
-1.07214e-154
6.6285e-155
4.51081e-155
7.70151e-156
-3.65292e-156
-2.4154e-156
-4.2788e-157
1.32793e-157
1.00156e-157
1.75539e-158
-5.35447e-159
-3.292e-159
-5.28245e-160
-5.47785e-161
4.56617e-160
-7.24133e-161
-5.46522e-161
-1.04757e-161
1.34936e-162
1.99429e-162
1.8783e-163
-2.51869e-163
-6.7493e-164
-7.13019e-183
3.19697e-182
-6.36014e-181
1.39787e-179
-3.01019e-178
2.15066e-177
-4.13658e-176
8.40251e-175
-1.6703e-173
-4.14063e-172
8.46512e-171
-1.45129e-169
2.64905e-168
-5.17253e-167
9.08252e-166
-1.42437e-164
2.15406e-163
-3.14407e-162
4.4144e-161
-6.7844e-160
1.02044e-158
-1.30617e-157
1.8446e-156
-2.18093e-155
2.89663e-154
-3.75822e-153
3.92319e-152
-4.7143e-151
4.39655e-150
-3.62738e-149
3.87688e-148
-2.60652e-147
2.53566e-146
-1.41925e-145
1.24883e-144
-4.62165e-144
3.53998e-143
-2.76842e-142
7.31001e-142
-4.52372e-141
4.98422e-141
-2.15293e-140
1.0193e-139
-1.22568e-140
-3.09763e-139
2.97432e-138
-2.23695e-137
4.73841e-137
-8.86706e-137
-3.2867e-136
1.15727e-135
-1.67615e-136
-8.34886e-136
-8.41362e-137
-1.80178e-136
2.88356e-137
1.27272e-136
-3.08476e-138
2.59358e-136
1.56569e-136
1.25704e-137
-3.34754e-137
-1.20025e-136
2.0107e-138
3.69532e-137
6.99167e-137
2.75294e-137
-3.12073e-137
-3.9326e-137
-6.92632e-138
5.03749e-138
6.2475e-138
2.08965e-138
-4.94942e-139
-5.85866e-139
-1.98591e-139
2.31793e-140
3.92104e-140
1.28941e-140
-1.61115e-142
-1.97308e-141
-6.90493e-142
9.02864e-144
7.10016e-143
2.28585e-143
1.91863e-145
-2.59918e-144
-8.60348e-145
-2.5803e-146
4.21171e-146
3.76209e-145
-2.16525e-145
-9.76654e-146
-1.11749e-146
4.30517e-147
1.75424e-147
2.51367e-149
-1.38012e-148
-3.0663e-149
6.21823e-150
-1.14214e-167
2.08132e-166
1.98651e-165
-4.77873e-164
-9.47617e-163
2.11141e-161
-4.28643e-160
8.53519e-159
-1.66456e-157
-3.45449e-158
2.98075e-156
-5.38189e-155
9.63443e-154
-1.68518e-152
2.87861e-151
-4.79933e-150
7.80488e-149
-1.23724e-147
1.91048e-146
-2.8715e-145
4.19768e-144
-5.96321e-143
8.22494e-142
-1.10039e-140
1.42651e-139
-1.7899e-138
2.17112e-137
-2.54249e-136
2.8703e-135
-3.11882e-134
3.25589e-133
-2.42633e-132
2.28282e-131
-2.08887e-130
1.40991e-129
-8.56395e-129
4.06709e-128
-2.88474e-127
8.93588e-127
-5.27456e-126
4.55088e-126
-1.68565e-125
6.33586e-125
2.69654e-125
-2.45955e-124
2.53274e-123
-1.73311e-122
-1.43467e-122
-1.37265e-122
3.87917e-121
-8.0603e-121
-3.60343e-121
5.42258e-121
5.44332e-121
1.55434e-121
-1.55764e-121
-1.60804e-121
-3.34096e-121
-3.03106e-122
1.43245e-121
1.93869e-121
4.14364e-122
-5.89507e-122
-1.21533e-121
-4.69047e-122
4.28829e-122
5.6543e-122
2.60314e-122
-1.9022e-123
-1.1072e-122
-3.80835e-123
-1.65933e-124
5.32114e-124
2.61401e-124
2.85e-125
-2.78838e-125
-1.54564e-125
-2.13767e-126
1.28689e-126
7.64214e-127
1.19511e-127
-4.85128e-128
-3.04913e-128
-5.07168e-129
1.47802e-129
9.80012e-130
1.74337e-130
-3.2229e-131
-2.26436e-131
-4.21931e-131
4.83284e-130
-4.63437e-129
1.85463e-129
1.58083e-129
9.11671e-130
-2.70611e-131
-1.27136e-130
-2.76017e-131
1.39072e-131
5.87899e-132
-9.95475e-152
1.47616e-150
-2.12147e-149
4.40556e-148
-7.72725e-147
1.44112e-145
-2.63733e-144
4.25729e-143
-7.23414e-142
1.19065e-140
-2.16365e-139
2.88037e-138
-3.16708e-137
5.2708e-136
-3.89669e-135
5.98252e-134
-5.87351e-133
8.79852e-132
-1.31878e-130
1.53792e-129
-1.60978e-128
1.43337e-127
-1.86313e-126
2.40444e-125
-1.4026e-124
-3.33682e-124
1.80573e-122
-2.10471e-121
2.28169e-120
-2.05203e-119
1.87516e-118
-1.63423e-117
1.20506e-116
-9.13723e-116
6.48647e-115
-5.60695e-114
4.1243e-113
-2.41453e-112
1.26228e-111
-5.75945e-111
2.17101e-110
-5.94292e-110
1.717e-110
1.29068e-109
-1.63216e-108
8.12641e-108
-2.29657e-107
3.95313e-107
6.01726e-107
-3.19836e-106
4.89228e-106
4.39764e-106
-6.59088e-106
-4.59986e-106
-9.53146e-107
6.15656e-106
5.50158e-106
-3.36791e-107
-3.89507e-106
-2.84663e-106
-2.02504e-107
1.02673e-106
6.08503e-107
-1.63141e-107
-4.39641e-107
-2.25031e-107
-5.40702e-108
4.14886e-108
4.27828e-108
-3.51454e-108
2.05051e-108
1.20102e-107
-5.64613e-108
-5.20854e-108
-7.75837e-109
9.76538e-109
8.19878e-109
-7.13368e-110
-2.3858e-109
-7.78526e-110
5.03588e-110
6.24492e-110
6.88613e-111
-1.82408e-110
-9.23265e-111
5.28698e-112
1.61495e-111
5.6029e-112
3.4584e-113
-1.87162e-112
-5.1125e-113
3.35732e-114
8.59022e-114
2.53575e-114
-1.09334e-114
-6.26591e-115
-6.06725e-116
7.48332e-116
2.82094e-116
-2.54141e-117
6.70104e-137
-1.1646e-135
1.55928e-134
-3.16186e-133
2.65846e-132
-5.00962e-131
9.76893e-130
-1.86328e-128
3.47755e-127
-1.21722e-125
2.21302e-124
-2.0129e-123
3.29681e-122
-5.47983e-121
5.27659e-120
-8.08464e-119
4.30302e-118
-5.90466e-117
8.62051e-116
-1.21969e-114
1.67528e-113
-2.23157e-112
2.87985e-111
-3.5965e-110
4.34125e-109
-2.93589e-108
1.98365e-107
2.40581e-107
-3.70309e-106
3.62796e-105
-3.4723e-104
3.17031e-103
-2.75506e-102
2.27102e-101
1.32867e-100
1.18114e-99
-8.91884e-99
5.57063e-98
-3.23189e-97
1.68016e-96
-7.57269e-96
1.88704e-95
-5.32988e-96
-7.10609e-95
4.34847e-94
-1.80684e-93
7.29408e-93
-7.83382e-93
-3.08664e-92
2.40212e-91
-1.89282e-91
-3.98978e-91
3.69809e-91
4.94707e-91
2.38385e-91
-1.22487e-91
-2.93386e-91
-2.32758e-91
-8.79402e-92
5.77633e-93
2.22498e-92
4.1818e-93
-9.06924e-93
-8.66366e-93
-1.94995e-93
-8.49593e-93
8.26443e-92
-5.33006e-92
-1.48885e-92
1.08781e-92
-6.32351e-93
-1.09786e-92
-6.7265e-94
1.95228e-93
1.16015e-93
6.32001e-94
-4.54465e-94
-1.83535e-94
1.3952e-95
7.46681e-95
3.941e-95
-2.82594e-95
-2.98576e-95
-6.34545e-96
8.9723e-97
2.14318e-96
5.48974e-97
-3.61464e-97
-1.95123e-97
-3.21599e-98
2.15433e-98
9.84693e-99
6.36251e-100
-7.81442e-100
-3.19224e-100
1.56435e-101
3.85292e-101
8.14525e-102
-1.86227e-102
-1.05002e-102
-1.19445e-121
2.02552e-120
-5.13093e-119
8.47184e-118
-1.46579e-116
2.8392e-115
-3.9133e-114
7.18927e-113
-1.31156e-111
2.72011e-110
-4.14943e-109
6.01097e-108
-6.72629e-107
8.10263e-106
-8.91112e-105
1.83154e-103
-2.77039e-102
3.20867e-101
-2.35149e-100
3.09092e-99
-4.11415e-98
4.0455e-97
-3.79475e-96
2.16381e-95
-2.3896e-94
2.69066e-93
-2.61879e-92
2.42463e-91
-1.90659e-90
2.02018e-89
-1.85144e-88
1.60408e-87
-1.01793e-86
6.97403e-86
-5.08738e-85
3.12034e-84
-1.77212e-83
7.31889e-83
-3.29234e-82
7.71605e-82
-1.92251e-81
8.33384e-81
5.54507e-82
-8.91221e-80
4.46324e-79
-1.20884e-78
1.89056e-78
1.8925e-78
2.35227e-77
-9.97318e-77
2.51607e-77
2.25902e-76
-1.00002e-76
1.23482e-77
2.99473e-77
-2.70585e-76
-6.69506e-76
-4.90793e-76
1.85504e-76
7.78199e-76
7.50795e-76
2.19434e-76
-2.37669e-76
-4.0401e-76
-1.98842e-76
4.11255e-77
1.10276e-76
6.4565e-77
1.73267e-77
-2.09901e-77
-2.07306e-78
5.26614e-78
8.67736e-78
-3.08124e-78
-3.00705e-78
-1.39946e-78
2.28292e-79
3.4987e-79
2.23021e-79
-8.07812e-81
-6.77016e-80
-3.24449e-80
-2.68838e-81
6.5677e-81
3.0491e-81
2.02481e-82
-4.65891e-82
-1.92764e-82
-8.86973e-85
2.62548e-83
9.10221e-84
-9.6715e-85
-1.24382e-84
-3.00986e-85
6.93117e-86
5.40442e-86
6.54919e-87
-2.9713e-87
-1.61018e-87
1.61114e-89
-1.25101e-106
2.11548e-105
-4.52076e-104
9.14942e-103
-1.86951e-101
3.3738e-100
-6.08243e-99
1.03772e-97
-1.72001e-96
2.76961e-95
-4.50884e-94
7.1612e-93
-1.15593e-91
1.66718e-90
-2.19286e-89
2.898e-88
-3.67272e-87
4.78653e-86
-6.03623e-85
6.01726e-84
-5.63325e-83
5.27186e-82
-5.27343e-81
4.93806e-80
-1.68345e-79
1.30292e-78
-1.263e-77
1.11646e-76
-1.01383e-75
8.41865e-75
-6.2359e-74
4.52868e-73
-3.72597e-72
2.5811e-71
-1.6567e-70
9.14861e-70
-4.5226e-69
2.41408e-68
-1.15529e-67
4.7297e-67
-1.35283e-66
1.92904e-66
8.15786e-66
-7.74528e-65
3.48236e-64
-9.01554e-64
1.47441e-63
1.48385e-63
-1.75748e-62
4.46479e-62
5.10655e-63
-1.33336e-61
-6.26249e-62
4.48005e-62
3.05212e-61
3.03394e-61
-8.19023e-62
-3.70793e-61
-3.85927e-61
-6.68293e-62
2.16211e-61
2.35661e-61
1.05161e-61
-1.89229e-62
-7.19115e-62
-2.26016e-62
-1.36723e-63
-3.90484e-63
2.18188e-63
-2.12389e-62
-2.38099e-62
1.5377e-63
1.08346e-62
6.55487e-63
1.39541e-63
-1.21125e-63
-1.0161e-63
-2.55123e-64
8.82867e-65
9.09902e-65
2.49756e-65
-4.86625e-66
-6.88589e-66
-2.0105e-66
1.72559e-67
3.57799e-67
1.02384e-67
-1.13971e-68
-1.75786e-68
-4.557e-69
7.15572e-70
7.44483e-70
1.42777e-70
-4.43672e-71
-2.77249e-71
-2.12004e-72
2.47726e-72
8.7389e-73
-5.06111e-74
-8.88331e-74
-2.12899e-92
3.4316e-91
-6.81468e-90
1.32554e-88
4.35463e-87
-8.60959e-86
1.56673e-84
-2.78967e-83
4.85252e-82
-8.24116e-81
1.36569e-79
-2.20689e-78
3.47518e-77
-5.32884e-76
7.9509e-75
-1.15339e-73
1.62531e-72
-2.22279e-71
2.94738e-70
-2.9767e-69
3.65015e-68
-4.38459e-67
5.07936e-66
-5.66976e-65
4.67981e-65
-1.88731e-64
2.05799e-63
-1.95405e-62
1.77674e-61
-1.53878e-60
1.26565e-59
-9.85218e-59
7.2284e-58
-4.97373e-57
3.18973e-56
-1.89127e-55
1.0254e-54
-5.00167e-54
2.13714e-53
-7.59287e-53
1.9496e-52
-1.30958e-52
-2.16026e-51
1.57113e-50
-6.50092e-50
1.6899e-49
-1.50308e-49
-6.96791e-49
2.30254e-48
-4.88413e-48
-1.20402e-47
2.09728e-47
-1.58666e-47
7.70517e-47
-1.46965e-47
-5.9834e-47
-3.94732e-47
2.12498e-47
6.3347e-47
5.68228e-47
-4.84253e-48
7.8184e-47
-8.13979e-47
1.46525e-47
-9.52483e-48
-2.47278e-47
-3.17018e-47
-1.9937e-47
-4.33184e-47
3.8858e-48
1.41229e-47
9.0045e-48
2.5925e-48
-1.39139e-49
-7.69161e-49
-3.48563e-49
-4.47934e-50
5.69244e-50
3.15847e-50
3.96418e-51
-2.67731e-51
-1.86128e-51
-6.08284e-52
-3.68717e-53
5.7973e-53
2.48985e-53
1.4394e-54
-2.54446e-54
-9.9922e-55
-1.43778e-56
1.15168e-55
3.15836e-56
-3.20924e-57
-4.01416e-58
1.07889e-57
4.2067e-58
5.31484e-59
-1.09247e-58
-2.83936e-59
5.41949e-60
8.58752e-76
-1.34783e-74
1.66447e-73
-3.09781e-72
2.52221e-71
-4.35938e-70
7.7669e-69
-1.35048e-67
2.29266e-66
6.93238e-66
-8.55731e-64
1.39397e-62
-2.13457e-61
8.68382e-61
-1.108e-59
1.56664e-58
-2.14099e-57
2.83701e-56
-3.64105e-55
4.52086e-54
-5.4239e-53
2.04606e-51
-2.36202e-50
2.53118e-49
-2.60973e-48
2.57913e-47
-2.43808e-46
2.19928e-45
-1.88798e-44
1.53764e-43
-1.18385e-42
8.58016e-42
-3.66888e-41
2.25909e-40
-1.3262e-39
7.07768e-39
-1.75759e-38
7.43123e-38
-5.16431e-38
1.93372e-37
-4.40974e-37
1.42325e-37