/*--------------------------------*- C++ -*----------------------------------*\
  =========                 |
  \\      /  F ield         | OpenFOAM: The Open Source CFD Toolbox
   \\    /   O peration     | Website:  https://openfoam.org
    \\  /    A nd           | Version:  13
     \\/     M anipulation  |
\*---------------------------------------------------------------------------*/
FoamFile
{
    format      ascii;
    class       volScalarField;
    location    "2.4";
    object      T;
}
// * * * * * * * * * * * * * * * * * * * * * * * * * * * * * * * * * * * * * //

dimensions      [0 0 0 1 0 0 0];

internalField   nonuniform List<scalar> 
10000
(
0
0
0
0
0
0
0
0
0
0
0
0
0
0
0
0
0
0
0
0
0
0
0
0
0
0
0
0
0
0
0
0
0
0
0
0
0
0
0
0
0
0
0
0
0
0
0
0
0
0
0
0
0
0
0
0
0
0
0
0
0
0
0
0
0
0
0
0
0
0
0
0
0
0
0
0
0
0
0
0
0
0
0
0
0
0
0
0
0
0
0
0
0
0
0
0
0
0
0
0
0
0
0
0
0
0
0
0
0
0
0
0
0
0
0
0
0
0
0
0
0
0
0
0
0
0
0
0
0
0
0
0
0
0
0
0
0
0
0
0
0
0
0
0
0
0
0
0
0
0
0
0
0
0
0
0
0
0
0
0
0
0
0
0
0
0
0
0
0
0
0
0
0
0
0
0
0
0
0
0
0
0
0
0
0
0
0
0
0
0
0
0
0
0
0
0
0
0
0
0
0
0
0
0
0
0
0
0
0
0
0
0
0
0
0
0
0
0
0
0
0
0
0
0
0
0
0
0
0
0
0
0
0
0
0
0
0
0
0
0
0
0
0
0
0
0
0
0
0
0
0
0
0
0
0
0
0
0
0
0
0
0
0
0
0
0
0
0
0
0
0
0
0
0
0
0
0
0
0
0
0
0
0
0
0
0
0
0
0
0
0
0
0
0
0
0
0
0
0
0
0
0
0
0
0
0
0
0
0
0
0
0
0
0
0
0
0
0
0
0
0
0
0
0
0
0
0
0
0
0
0
0
0
0
0
0
0
0
0
0
0
0
0
0
0
0
0
0
0
0
0
0
0
0
0
0
0
0
0
0
0
0
0
0
0
0
0
0
0
0
0
0
0
0
0
0
0
0
0
0
0
0
0
0
0
0
0
0
0
0
0
0
0
0
0
0
0
0
0
0
0
0
0
0
0
0
0
0
0
0
0
0
0
0
0
0
0
0
0
0
0
0
0
0
0
0
0
0
0
0
0
0
0
0
0
0
0
0
0
0
0
0
0
0
0
0
0
0
0
0
0
0
0
0
0
0
0
0
0
0
0
0
0
0
0
0
0
0
0
0
0
0
0
0
0
0
0
0
0
0
0
0
0
0
0
0
0
0
0
0
0
0
0
0
0
0
0
0
0
0
0
0
0
0
0
0
0
0
0
0
0
0
0
0
0
0
0
0
0
0
0
0
0
0
0
0
0
0
0
0
0
0
0
0
0
0
0
0
0
0
0
0
0
0
0
0
0
0
0
0
0
0
0
0
0
0
0
0
0
0
0
0
0
0
0
0
0
0
0
0
0
0
0
0
0
0
0
0
0
0
0
0
0
0
0
0
0
0
0
0
0
0
0
0
0
0
0
0
0
0
0
0
0
0
0
0
0
0
0
0
0
0
0
0
0
0
0
0
0
0
0
0
0
0
0
0
0
0
0
0
0
0
0
0
0
0
0
0
0
0
0
0
0
0
0
0
0
0
0
0
0
0
0
0
0
0
0
0
0
0
0
0
0
0
0
0
0
0
0
0
0
0
0
0
0
0
0
0
0
0
0
0
0
0
0
0
0
0
0
0
0
0
0
0
0
0
0
0
0
0
0
0
0
0
0
0
0
0
0
0
0
0
0
0
0
0
0
0
0
0
0
0
0
0
0
0
0
0
0
0
0
0
0
0
0
0
0
0
0
0
0
0
0
0
0
0
0
0
0
0
0
0
0
0
0
0
0
0
0
0
0
0
0
0
0
0
0
0
0
0
0
0
0
0
0
0
0
0
0
0
0
0
0
0
0
0
0
0
0
0
0
0
0
0
0
0
0
0
0
0
0
0
0
0
0
0
0
0
0
0
0
0
0
0
0
0
0
0
0
0
0
0
0
0
0
0
0
0
0
0
0
0
0
0
0
0
0
0
0
0
0
0
0
0
0
0
0
0
0
0
0
0
0
0
0
0
0
0
0
0
0
0
0
0
0
0
0
0
0
0
0
0
0
0
0
0
0
0
0
0
0
0
0
0
0
0
0
0
0
0
0
0
0
0
0
0
0
0
0
0
0
0
0
0
0
0
0
0
0
0
0
0
0
0
0
0
0
0
0
0
0
0
0
0
0
0
0
0
0
0
0
0
0
0
0
0
0
0
0
0
0
0
0
0
0
0
0
0
0
0
0
0
0
0
0
0
0
0
0
0
0
0
0
0
0
0
0
0
0
0
0
0
0
0
0
0
0
0
0
0
0
0
0
0
0
0
0
0
0
0
0
0
0
0
0
0
0
0
0
0
0
0
0
0
0
0
0
0
0
0
0
0
0
0
0
0
0
0
0
0
0
0
0
0
0
0
0
0
0
0
0
0
0
0
0
0
0
0
0
0
0
0
0
0
0
0
0
0
0
0
0
0
0
0
0
0
0
0
0
0
0
0
0
0
0
0
0
0
0
0
0
0
0
0
0
0
0
0
0
0
0
0
0
0
0
0
0
0
0
0
0
0
0
0
0
0
0
0
0
0
0
0
0
0
0
0
0
0
0
0
0
0
0
0
0
0
0
0
0
0
0
0
0
0
0
0
0
0
0
0
0
0
0
0
0
0
0
0
0
0
0
0
0
0
0
0
0
0
0
0
0
0
0
0
0
0
0
0
0
0
0
0
0
0
0
0
0
0
0
0
0
0
0
0
0
0
0
0
0
0
0
0
0
0
0
0
0
0
0
0
0
0
0
0
0
0
0
0
0
0
0
0
0
0
0
0
0
0
0
0
0
0
0
0
0
0
0
0
0
0
0
0
0
0
0
0
0
0
0
0
0
0
0
0
0
0
0
0
0
0
0
0
0
0
0
0
0
0
0
0
0
0
0
0
0
0
0
0
0
0
0
0
0
0
0
0
0
0
0
0
0
0
0
0
0
0
0
0
0
0
0
0
0
0
0
0
0
0
0
0
0
0
0
0
0
0
0
0
0
0
0
0
0
0
0
0
0
0
0
0
0
0
0
0
0
0
0
0
0
0
0
0
0
0
0
0
0
0
0
0
0
0
0
0
0
0
0
0
0
0
0
0
0
0
0
0
0
0
0
0
0
0
0
0
0
0
0
0
0
0
0
0
0
0
0
0
0
0
0
0
0
0
0
0
0
0
0
0
0
0
0
0
0
0
0
0
0
0
0
0
0
0
0
0
0
0
0
0
0
0
0
0
0
0
0
0
0
0
0
0
0
0
0
0
0
0
0
0
0
0
0
0
0
0
0
0
0
0
0
0
0
0
0
0
0
0
0
0
0
0
0
0
0
0
0
0
0
0
0
0
0
0
0
0
0
0
0
0
0
0
0
0
0
0
0
0
0
0
0
0
0
0
0
0
0
0
0
0
0
0
0
0
0
0
0
0
0
0
0
0
0
0
0
0
0
0
0
0
0
0
0
0
0
0
0
0
0
0
0
0
0
0
0
0
0
0
0
0
0
0
0
0
0
0
0
0
0
0
0
0
0
0
0
0
0
0
0
0
0
0
0
0
0
0
0
0
0
0
0
0
0
0
0
0
0
0
0
0
0
0
0
0
0
0
0
0
0
0
0
0
0
0
0
0
0
0
0
0
0
0
0
0
0
0
0
0
0
0
0
0
0
0
0
0
0
0
0
0
0
0
0
0
0
0
0
0
0
0
0
0
0
0
0
0
0
0
0
0
0
0
0
0
0
0
0
0
0
0
0
0
0
0
0
0
0
0
0
0
0
0
0
0
0
0
0
0
0
0
0
0
0
0
0
0
0
0
0
0
0
0
0
0
0
0
0
0
0
0
0
0
0
0
0
0
0
0
0
0
0
0
0
0
0
0
0
0
0
0
0
0
0
0
0
0
0
0
0
0
0
0
0
0
0
0
0
0
0
0
0
0
0
0
0
0
0
0
0
0
0
0
0
0
0
0
0
0
0
0
0
0
0
0
0
0
0
0
0
0
0
0
0
0
0
0
0
0
0
0
0
0
0
0
0
0
0
0
0
0
0
0
0
0
0
0
0
0
0
0
0
0
0
0
0
0
0
0
0
0
0
0
0
0
0
0
0
0
0
0
0
0
0
0
0
0
0
0
0
0
0
0
0
0
0
0
0
0
0
0
0
0
0
0
0
0
0
0
0
0
0
0
0
0
0
0
0
0
0
0
0
0
0
0
0
0
0
0
0
0
0
0
0
0
0
0
0
0
0
0
0
0
0
0
0
0
0
0
0
0
0
0
0
0
0
0
0
0
0
0
0
0
0
0
0
0
0
0
0
0
0
0
0
0
0
0
0
0
0
0
0
0
0
0
0
0
0
0
0
0
0
0
0
0
0
0
0
0
0
0
0
0
0
0
0
0
0
0
0
0
0
0
0
0
0
0
0
0
0
0
0
0
0
0
0
0
0
0
0
0
0
0
0
0
0
0
0
0
0
0
0
0
0
0
0
0
0
0
0
0
0
0
0
0
0
0
0
0
0
0
0
0
0
0
0
0
0
0
0
0
0
0
0
0
0
0
0
0
0
0
0
0
0
0
0
0
0
0
0
0
0
0
0
0
0
0
0
0
0
0
0
0
0
0
0
0
0
0
0
0
0
0
0
0
0
0
0
0
0
0
0
0
0
0
0
0
0
0
0
0
0
0
0
0
0
0
0
0
0
0
0
0
0
0
0
0
0
0
0
0
0
0
0
0
0
0
0
0
0
0
0
0
0
0
0
0
0
0
0
0
0
0
0
0
0
0
0
0
0
0
0
0
0
0
0
0
0
0
0
0
0
0
0
0
0
0
0
0
0
0
0
0
0
0
0
0
0
0
0
0
0
0
0
0
0
0
0
0
0
0
0
0
0
0
0
0
0
0
0
0
0
0
0
0
0
0
0
0
0
0
0
0
0
0
0
0
0
0
0
0
0
0
0
0
0
0
0
0
0
0
0
0
0
0
0
0
0
0
0
0
0
0
0
0
0
0
0
0
0
0
0
0
0
0
0
0
0
0
0
0
0
0
0
0
0
0
0
0
0
0
0
0
0
0
0
0
0
0
0
0
0
0
0
0
0
0
0
0
0
0
0
0
0
0
0
0
0
0
0
0
0
0
0
0
0
0
0
0
0
0
0
0
0
0
0
0
0
0
0
0
0
0
0
0
0
0
0
0
0
0
0
0
0
0
0
0
0
0
0
0
0
0
0
0
0
0
0
0
0
0
0
0
0
0
0
0
0
0
0
0
0
0
0
0
0
0
0
0
0
0
0
0
0
0
0
0
0
0
0
0
0
0
0
0
0
0
0
0
0
0
0
0
0
0
0
0
0
0
0
0
0
0
0
0
0
0
0
0
0
0
0
0
0
0
0
0
0
0
0
0
0
0
0
0
0
0
0
0
0
0
0
0
0
0
0
0
0
0
0
0
0
0
0
0
0
0
0
0
0
0
0
0
0
0
0
0
0
0
0
0
0
0
0
0
0
0
0
0
0
0
0
0
0
0
0
0
0
0
0
0
0
0
0
0
0
0
0
0
0
0
0
0
0
0
0
0
0
7.9841e-321
-7.52166e-320
5.01096e-319
-2.7505e-318
3.62612e-318
4.10133e-318
-6.38604e-318
2.78881e-317
-2.04393e-316
7.30101e-316
-1.36615e-315
-2.44948e-316
1.51244e-314
-1.43135e-314
-1.82898e-314
3.34461e-314
-1.50429e-313
3.00571e-313
4.59789e-313
7.26026e-313
-2.0802e-313
-1.54702e-312
-1.15693e-312
-1.63093e-313
2.3533e-312
1.86626e-312
-2.175e-312
-1.54792e-312
-1.85057e-314
9.32126e-313
-4.11537e-313
3.0229e-312
2.49426e-312
-1.37825e-312
-1.93051e-312
-4.50101e-312
-1.09343e-312
1.62309e-312
2.2641e-312
-1.82472e-312
1.32254e-312
1.66287e-312
-6.84349e-313
9.62406e-313
-5.8375e-313
1.26449e-313
-1.45705e-312
4.90636e-313
2.83344e-313
1.10382e-313
-3.51912e-314
-1.16239e-313
2.97823e-314
-1.57673e-313
4.60368e-314
4.67308e-314
1.1448e-314
3.64536e-315
-5.12761e-315
-5.66509e-315
-2.60552e-315
-4.30085e-316
1.18016e-315
3.06072e-316
-2.81909e-316
0
0
0
0
0
0
0
0
0
5.13334e-321
-3.9298e-320
1.39252e-319
-2.5475e-319
1.89879e-318
8.4006e-320
-9.54041e-318
1.41642e-317
-4.95585e-317
1.78622e-316
-1.0399e-315
9.5314e-316
2.9766e-314
-3.4172e-313
3.04417e-312
-2.22269e-311
1.40294e-310
-5.61634e-310
2.09847e-309
-1.35055e-308
5.83081e-308
-1.71057e-307
1.84046e-307
-8.33798e-307
-1.96729e-306
2.26347e-305
-7.60562e-305
1.56744e-306
4.49854e-304
-9.56369e-304
1.06832e-303
1.57956e-303
-1.16248e-303
5.50582e-303
-3.44107e-302
1.19281e-301
-8.7608e-302
-1.50028e-300
1.45589e-299
-8.78223e-299
3.40491e-298
5.7087e-299
-8.75948e-298
-2.08525e-298
3.3136e-298
4.50392e-298
4.32594e-298
1.42197e-298
-4.54545e-298
-5.28782e-298
1.7464e-298
1.67194e-297
-1.9082e-297
3.41814e-297
1.70818e-297
-2.14961e-297
-7.15201e-297
-1.24314e-297
2.62384e-297
3.91395e-297
2.35007e-297
-2.88776e-298
-2.24159e-297
-3.01165e-297
9.34616e-298
2.26908e-297
3.67712e-298
-3.13693e-298
-2.8029e-298
-1.03727e-297
-8.95802e-298
1.78173e-298
1.20661e-297
5.79889e-298
3.45595e-299
-2.54554e-298
-3.29938e-298
-1.3785e-298
8.96677e-299
1.09619e-298
3.67263e-299
-2.2722e-299
-2.10858e-299
7.77835e-301
5.82838e-300
3.17978e-300
7.71877e-301
-9.86287e-301
8.96313e-302
7.70331e-301
-8.31302e-301
4.18664e-314
-2.68172e-313
1.56803e-312
-7.20361e-312
6.97091e-311
-2.77234e-310
2.51914e-309
-2.44758e-308
6.12681e-308
-1.98312e-306
1.18043e-305
-1.01488e-304
4.45946e-304
-1.86102e-303
2.3511e-304
3.2086e-303
-2.31491e-303
2.09225e-302
-1.12091e-301
4.63323e-301
-8.03141e-301
1.35925e-300
3.21533e-299
-4.37554e-298
3.85814e-297
-2.674e-296
1.93847e-295
-7.84525e-295
3.14058e-294
-1.92568e-293
4.08944e-293
-2.03034e-292
6.58918e-292
-1.46663e-291
-2.96444e-292
1.60302e-290
1.55914e-290
-4.11097e-289
1.45904e-288
-1.70294e-289
-4.77868e-289
-7.68773e-289
-4.13394e-288
7.10437e-288
-1.04624e-288
-4.86638e-287
5.84843e-286
-6.19124e-285
2.77524e-284
-5.4589e-284
-1.6557e-283
1.84206e-283
1.89591e-283
3.65449e-284
-1.03687e-283
-1.14112e-283
-1.75419e-283
3.52755e-283
2.60305e-283
-5.18154e-284
-5.38653e-283
2.06692e-282
-4.7252e-283
-2.97959e-282
-1.06532e-282
9.73162e-283
1.50471e-282
8.11482e-283
-1.33924e-283
-4.49541e-283
-3.07695e-283
-1.5159e-283
1.07071e-282
-1.5304e-283
-5.54634e-283
-1.84358e-283
-2.74445e-283
-4.3473e-283
1.11571e-283
5.41043e-283
3.61057e-283
1.40005e-283
-1.2313e-283
-1.11165e-283
-6.71351e-284
-6.9656e-285
4.73652e-284
1.1916e-284
-9.18546e-285
-1.00221e-284
1.58918e-285
4.0799e-285
2.22484e-285
2.87327e-286
-4.17129e-286
-3.48583e-286
-1.70456e-287
-1.35326e-286
-9.9376e-286
4.98557e-286
-9.35011e-300
1.46873e-298
-9.48132e-298
9.33218e-297
-4.78057e-296
4.48036e-295
-4.34516e-294
1.91973e-293
-1.68138e-292
7.84398e-292
-6.6538e-291
2.48143e-290
-1.97429e-289
1.65608e-288
-8.55805e-289
1.95324e-288
-3.79319e-289
-5.40812e-288
3.14526e-287
-2.1799e-286
1.40606e-285
-9.99747e-286
-1.78233e-286
3.81937e-284
-5.41017e-283
5.43509e-282
-3.25403e-281
2.11303e-280
-1.3581e-279
8.19137e-279
-4.61076e-278
3.92393e-278
-1.60638e-277
6.73165e-277
-1.87309e-276
7.52348e-277
-6.59649e-276
1.47304e-274
-7.46767e-274
-9.42778e-275
5.74633e-274
3.54291e-274
3.3223e-273
-1.98463e-272
1.19711e-273
5.04632e-272
-2.77471e-271
1.18359e-270
-2.83351e-270
-6.50292e-270
6.48921e-269
-8.31667e-269
-3.19924e-268
-1.1909e-268
2.08612e-268
3.45808e-268
2.20882e-268
-1.34552e-269
-4.72881e-268
1.75391e-267
-3.66365e-268
-1.14722e-267
-1.3271e-267
6.04e-267
-3.26912e-267
4.58409e-267
-6.07069e-267
-9.55856e-269
1.16961e-268
5.28367e-267
-3.30527e-267
-1.11474e-267
-6.12967e-268
-3.44269e-268
2.86937e-269
-6.15418e-268
5.83327e-269
3.12748e-268
2.45559e-268
8.01097e-269
6.34073e-269
-6.8499e-269
-5.18875e-269
-1.45595e-269
4.14371e-270
2.0582e-269
-9.72203e-270
-6.30736e-270
3.93392e-271
2.48107e-270
2.31581e-270
-6.54295e-270
2.4728e-270
2.5883e-270
8.97394e-271
1.30173e-271
-1.0429e-270
-3.34494e-271
3.80823e-271
3.17027e-271
9.98375e-285
-7.11945e-284
6.05278e-283
-5.18322e-282
4.30575e-281
-3.38618e-280
2.47457e-279
-1.61584e-278
8.48179e-278
-7.32176e-277
3.76776e-276
-3.10429e-275
2.59841e-274
-1.41918e-273
5.77073e-273
-2.07906e-273
2.96617e-273
-3.36189e-272
3.16119e-272
1.34308e-271
-8.42004e-271
5.03953e-270
-2.84504e-269
9.99017e-269
-1.44971e-268
-1.5759e-267
1.52485e-266
-1.38321e-265
8.69901e-265
-5.11589e-264
2.2487e-263
-1.06049e-262
3.02384e-262
-7.1097e-262
2.35409e-262
5.13831e-261
-4.8149e-260
1.61474e-259
-3.43517e-259
-1.99826e-259
8.91251e-259
-3.0379e-258
-2.22618e-258
9.88506e-258
9.23226e-258
-3.44699e-258
1.78479e-257
-7.14314e-257
-9.81336e-257
2.30228e-255
-1.52926e-254
5.77087e-254
-1.22164e-254
-3.01905e-253
3.38637e-254
2.35473e-253
1.35385e-253
2.65418e-253
1.00677e-252
-8.35514e-253
-1.01312e-252
-6.70985e-253
5.27312e-253
3.74247e-252
2.07287e-252
-2.9767e-252
-3.80295e-252
-2.40587e-252
5.11131e-253
3.36656e-252
2.01306e-252
3.14292e-253
-1.1983e-252
-1.23184e-252
-5.79053e-253
2.14177e-253
3.62532e-253
2.62228e-253
5.00623e-254
-4.66334e-254
-6.26567e-254
-3.09709e-254
4.80945e-254
5.9335e-256
-2.15445e-254
-1.77126e-254
2.1815e-254
-2.98654e-254
7.84538e-255
5.91744e-255
-3.94151e-255
5.11948e-255
9.00788e-257
-1.87439e-255
-3.52752e-255
-1.98169e-255
-1.81251e-256
1.02908e-255
8.87043e-256
-7.86439e-257
1.40083e-270
1.55478e-269
-9.19607e-269
8.60899e-268
-8.35263e-267
7.92126e-266
-7.36609e-265
6.71223e-264
-5.99014e-263
2.9744e-262
-2.44636e-261
2.05055e-260
-7.84306e-260
5.90423e-259
-4.61078e-258
3.4812e-257
-1.18632e-256
2.12048e-257
3.64583e-257
-2.76777e-258
1.55845e-256
-8.88115e-256
5.11745e-255
-2.73817e-254
1.33562e-253
-5.67013e-253
1.84228e-252
-1.87414e-252
-9.74322e-251
5.86989e-250
-3.21793e-249
1.56173e-248
-1.81502e-248
1.97019e-248
2.23912e-247
-2.53278e-246
1.64508e-245
-4.12431e-245
1.55588e-244
-6.66598e-245
-9.60009e-245
1.04849e-243
4.56449e-243
-3.10155e-242
5.83416e-242
-9.51209e-242
9.60948e-243
8.26758e-241
-6.84095e-241
-1.67965e-240
2.79251e-240
-4.75617e-240
-3.1512e-239
9.24943e-239
2.91028e-239
8.1271e-239
9.87264e-239
-1.47853e-238
-6.42091e-238
-8.1876e-238
8.62876e-238
1.58366e-237
3.57602e-238
-7.20907e-238
-1.15321e-237
-5.1246e-238
5.87343e-239
6.94085e-238
7.78414e-238
5.39287e-239
-3.40498e-238
-3.28733e-238
-1.67351e-238
8.07703e-240
8.64683e-239
7.35032e-239
2.96889e-239
-1.6604e-240
-1.11708e-239
-8.17926e-240
-1.74277e-240
-5.21845e-240
1.64298e-239
1.25671e-239
1.74334e-239
-8.60305e-240
-3.06e-239
-2.32625e-239
8.24359e-240
1.14887e-239
5.02318e-240
-1.95239e-242
-1.35467e-240
-1.39349e-240
-2.55267e-241
2.7524e-241
2.52514e-241
1.04853e-241
-2.3215e-241
1.31151e-241
2.78329e-255
-8.45746e-255
6.18836e-254
-2.00908e-253
-1.98893e-252
4.62024e-251
-4.34114e-250
3.56037e-249
-2.54201e-248
2.15109e-247
-1.38257e-246
9.99225e-246
-7.05518e-245
4.08451e-244
-2.52765e-243
1.54374e-242
-8.80643e-242
3.79374e-241
-9.91858e-241
3.73382e-240
-1.7918e-239
7.58675e-239
-2.47332e-238
-7.2195e-238
2.77995e-238
-2.28542e-238
3.83557e-237
-6.92195e-237
-3.32593e-236
2.47259e-235
-1.24466e-234
5.18682e-234
-2.07185e-233
3.3689e-233
5.84283e-233
-1.0569e-231
4.4628e-231
-1.64913e-230
3.71403e-230
-1.40789e-230
-1.63785e-229
6.20121e-229
2.96372e-230
-3.25257e-228
2.02543e-228
2.99425e-228
-9.4675e-227
5.82055e-226
-4.13875e-225
9.16189e-225
1.96571e-224
-2.67709e-224
-2.79859e-224
8.7227e-225
-5.84535e-225
2.70271e-224
1.11182e-223
5.85096e-224
-1.37417e-223
-2.77223e-223
-1.25415e-223
1.93479e-223
3.30229e-223
1.5148e-223
-1.16729e-224
-2.40966e-223
-2.05356e-223
-1.02019e-223
9.96894e-224
1.43668e-223
8.86792e-224
1.5002e-224
2.55075e-225
-4.27473e-224
-4.45018e-224
-5.25019e-224
-2.76675e-224
6.43113e-224
7.48466e-224
-5.30245e-225
-1.98114e-224
-5.93971e-224
-1.17638e-224
7.91253e-225
1.82441e-224
1.86205e-224
-2.75654e-225
-8.27508e-225
-5.18185e-225
-1.42815e-225
9.36862e-226
1.68469e-225
5.90521e-226
5.93972e-228
-3.22891e-226
-4.34163e-226
-1.37638e-226
1.19338e-226
2.34559e-226
3.92959e-227
-1.71385e-240
4.60329e-240
-4.39222e-239
4.18425e-238
-2.93856e-237
4.87567e-238
6.9611e-236
-6.27312e-235
5.35154e-234
-4.69672e-233
2.5379e-232
-1.97274e-231
1.53828e-230
-1.16477e-229
6.84043e-229
-4.84423e-228
2.54483e-227
-1.69035e-226
5.40025e-226
-1.20779e-225
7.08362e-225
-4.17228e-224
2.31126e-223
8.48608e-223
-1.17947e-223
4.71916e-224
-2.36521e-222
1.22268e-221
3.52845e-222
-4.11507e-221
2.09918e-220
-1.0548e-219
6.31507e-219
-1.5985e-218
-8.45209e-219
1.61901e-217
-9.61641e-217
1.06397e-216
-1.31053e-216
-2.42365e-215
1.60832e-214
-5.25191e-214
3.97715e-214
-7.40357e-214
4.17899e-213
-3.30054e-213
-1.9515e-212
-2.38085e-211
2.26363e-210
-4.33891e-211
-4.8417e-210
1.02359e-209
-5.42894e-210
-3.90256e-210
2.22357e-209
1.71483e-209
-4.09486e-209
-6.54758e-209
-3.0085e-209
5.9146e-209
1.01211e-208
5.02235e-209
-1.1766e-209
-7.65584e-209
-8.64466e-209
-2.18179e-209
-2.41669e-211
6.678e-209
3.62959e-209
8.7844e-210
2.18713e-210
-7.85568e-210
-1.82539e-209
-1.29259e-209
-6.49172e-210
2.5816e-209
2.05284e-209
1.15549e-209
-3.09664e-209
-1.70077e-209
-2.12702e-209
8.92924e-210
1.29587e-209
1.05081e-209
2.14421e-210
-3.06359e-210
-2.25484e-211
-3.23159e-210
-2.72361e-211
5.20264e-211
4.63602e-211
-4.83148e-212
9.31533e-213
-1.44044e-211
-2.27411e-211
1.0047e-211
1.07784e-211
9.76599e-212
-7.04125e-213
-3.07944e-212
-1.11511e-225
4.55987e-225
-2.96613e-224
2.15125e-223
-1.94305e-222
1.41456e-221
-9.45256e-221
3.20167e-220
-4.88635e-220
-2.94988e-218
3.7904e-217
-1.96632e-216
6.7407e-216
-3.92422e-215
3.62895e-214
-1.86378e-213
7.32265e-213
-4.22653e-212
4.64225e-211
-1.6028e-210
7.67804e-210
-3.64025e-209
2.32512e-208
-9.52298e-208
4.4278e-207
-1.11936e-206
1.30954e-206
1.59032e-206
6.82655e-206
4.10733e-205
1.06548e-205
-4.32437e-205
2.60028e-204
5.38591e-204
-3.58573e-203
-4.47637e-203
2.73499e-202
-1.32702e-201
7.1213e-201
-1.44299e-200
3.04992e-200
-1.53489e-199
5.77043e-200
1.17152e-199
2.20867e-198
-6.35718e-198
-1.84336e-197
1.98406e-196
-8.12493e-196
1.42776e-196
3.69539e-195
-2.18969e-195
-5.3249e-195
-4.28532e-195
7.19459e-195
1.06176e-194
3.69426e-195
-7.29763e-195
-1.21182e-194
-7.55027e-195
-1.05347e-195
-2.37789e-195
2.02757e-194
1.83701e-194
-2.93431e-195
-3.69898e-195
-2.16262e-194
2.01476e-194
-4.89631e-195
-1.22475e-194
3.28093e-195
1.89945e-194
3.45946e-195
-1.40606e-194
-2.75906e-194
3.82033e-195
1.77369e-194
1.91461e-194
-1.15261e-194
1.10962e-194
-2.37163e-194
-6.52871e-196
2.41361e-195
-1.59946e-196
5.00671e-195
3.19684e-195
-3.53487e-195
-2.30955e-195
-2.45405e-195
1.35282e-195
1.93229e-196
4.17698e-196
3.54445e-196
1.62033e-196
-2.65829e-196
-2.50033e-196
-7.60398e-197
1.86186e-197
3.51612e-197
1.04864e-197
-3.11756e-211
1.5937e-210
-1.23466e-209
1.11399e-208
-7.30328e-208
6.28024e-207
-5.39155e-206
4.51816e-205
-3.7003e-204
2.95911e-203
-2.30868e-202
1.75563e-201
1.88946e-201
-1.83906e-200
-1.55888e-199
1.13179e-198
-9.77595e-199
4.46084e-197
-2.82997e-196
2.99514e-196
-1.46906e-195
-9.19043e-195
4.78835e-194
-6.60594e-195
-1.7006e-192
6.27096e-192
-1.2227e-191
2.53769e-191
6.06032e-191
-1.86247e-190
-7.76902e-192
-1.12174e-189
4.62753e-189
6.16403e-189
5.14257e-189
-1.07255e-187
5.96939e-187
-1.50759e-186
1.92015e-186
-3.25228e-186
1.39687e-185
-4.60127e-185
-1.43058e-184
9.63458e-184
-3.79635e-183
1.75524e-183
1.78573e-182
-1.25626e-181
2.22211e-181
3.34511e-181
-1.6451e-180
8.87043e-182
1.11676e-180
1.69582e-180
1.34496e-180
-6.39511e-180
-3.29684e-180
4.44618e-181
1.65719e-179
3.90281e-180
-9.47011e-180
1.76231e-179
8.65047e-180
-1.78409e-179
-3.86196e-179
-1.79872e-179
5.0908e-180
3.0144e-179
2.77056e-179
1.1863e-179
-4.38774e-180
-1.80763e-179
-1.41276e-179
-5.07946e-180
4.71019e-180
1.96814e-179
-3.06998e-179
5.3119e-179
-4.01242e-180
-2.36419e-179
1.1487e-181
-1.85752e-179
-1.09181e-180
1.06412e-179
2.12311e-180
-4.11502e-180
9.98329e-181
-2.07964e-181
2.70018e-180
-4.72208e-181
-1.05248e-180
-6.36019e-181
3.17642e-181
2.32271e-181
1.10953e-181
1.94926e-182
-1.43543e-182
-7.53948e-183
-8.18123e-183
-4.81769e-185
1.30268e-196
-6.39426e-196
5.97757e-195
-6.01493e-194
4.31973e-193
-4.97371e-192
4.22712e-191
-3.45848e-190
3.73039e-189
-2.16167e-188
2.22864e-187
-1.67629e-186
6.64754e-186
-6.29808e-185
3.25279e-184
-1.42984e-183
8.97462e-183
-3.39628e-182
3.03301e-181
-1.22071e-180
3.9047e-180
-1.97835e-179
4.81203e-179
-3.95732e-178
9.77471e-178
-1.51784e-177
3.55051e-177
5.89164e-177
-9.38881e-176
4.69755e-175
-8.38632e-175
-1.60888e-174
5.27542e-174
-1.18368e-173
-6.94636e-174
-5.38018e-173
1.68569e-172
-3.83668e-172
-1.26497e-172
6.62201e-171
-1.97252e-170
-2.90337e-171
5.49946e-170
-2.92354e-169
1.00474e-168
1.10328e-168
-6.58188e-168
1.84947e-167
-1.15502e-167
-2.5056e-166
6.34429e-166
4.46355e-166
-3.47948e-166
-1.25222e-165
-1.45631e-165
2.48697e-165
5.28032e-165
6.44008e-166
-6.63718e-165
-7.83776e-165
-5.03536e-165
7.21742e-165
1.18867e-164
7.32695e-165
-1.7145e-165
-8.08838e-165
-8.04331e-165
-3.18992e-165
1.76041e-165
6.14303e-165
-6.11125e-165
3.01506e-164
-4.85095e-164
5.36051e-164
-1.66737e-164
-4.24135e-164
-5.06796e-164
5.02019e-164
3.02516e-164
3.23854e-164
-4.95857e-165
-1.68635e-164
-1.14341e-164
-6.0597e-165
2.43762e-165
5.60945e-165
2.80442e-165
-1.67977e-165
-1.68254e-165
-9.52188e-166
4.74356e-167
3.5912e-166
1.36154e-166
1.22159e-166
-2.85135e-167
-3.63938e-167
-1.1658e-167
4.27733e-168
1.07467e-168
1.18259e-168
-9.09748e-183
5.58538e-182
-1.54055e-180
2.212e-179
-2.97875e-178
3.12238e-177
-2.58693e-176
2.16868e-175
-1.77417e-174
1.38297e-173
-9.41275e-173
6.10478e-172
-4.05818e-171
2.47307e-170
-1.52159e-169
9.02831e-169
-4.78942e-168
2.41594e-167
-1.15831e-166
5.75713e-166
-2.69841e-165
1.04676e-164
-4.18579e-164
1.28106e-163
-3.86167e-163
8.19342e-163
-7.13518e-164
-1.06029e-161
7.06479e-161
-3.1625e-160
1.16754e-159
-3.33628e-159
7.83023e-159
-3.92584e-159
-1.04536e-158
8.42694e-158
-2.40206e-157
4.12713e-157
4.888e-157
-3.49737e-156
8.27694e-156
-6.77112e-156
-4.31361e-155
2.22004e-154
-3.48144e-154
-7.0325e-154
6.31605e-153
-1.74817e-152
-1.22679e-152
1.62122e-151
-1.38625e-151
-4.30046e-151
6.20369e-152
6.82009e-151
7.09436e-151
-1.61764e-151
-1.4651e-150
-1.46492e-150
-1.01032e-151
1.68843e-150
3.20937e-150
1.47316e-150
-6.38332e-151
-6.7663e-151
-2.75271e-150
-7.47622e-151
-9.53722e-150
-3.99632e-149
2.93312e-150
5.60434e-149
6.13682e-149
1.89656e-149
-4.75319e-149
-8.27245e-149
-4.18646e-149
1.74292e-149
4.8774e-149
4.3229e-149
8.18212e-150
-1.40514e-149
-1.91011e-149
-8.77821e-150
1.83255e-150
4.38529e-150
2.73216e-150
2.24217e-152
-1.12096e-150
-8.0494e-151
-1.68411e-151
1.05285e-151
3.18076e-151
1.30907e-151
-9.93722e-152
-1.07471e-151
-2.07521e-152
1.23791e-152
2.45549e-152
1.05173e-152
-2.74207e-153
-4.86332e-153
-1.52078e-166
1.09314e-166
-8.85743e-166
7.72073e-165
-6.42639e-164
1.50061e-163
-1.04121e-162
8.1304e-162
-6.08733e-161
-9.78697e-160
7.54238e-159
-4.78014e-158
3.2544e-157
-2.35257e-156
1.51166e-155
-8.55957e-155
4.61421e-154
-2.3628e-153
1.14037e-152
-5.90976e-152
2.89473e-151
-1.14293e-150
4.76574e-150
-1.46206e-149
4.29959e-149
-6.17867e-149
-3.19403e-148
3.35144e-147
-1.7367e-146
6.19493e-146
-2.53247e-145
5.14935e-145
-1.34537e-144
2.1205e-145
4.13916e-144
-1.8694e-143
4.45355e-143
-1.03585e-142
-1.97717e-142
8.69767e-142
-1.12753e-141
4.77699e-142
7.12964e-141
-2.92507e-140
1.21021e-140
8.05537e-140
-5.19447e-139
1.09581e-138
3.6527e-138
-1.78398e-137
-2.16251e-138
6.32194e-137
9.7667e-138
-3.26952e-137
-4.4616e-137
-9.33765e-137
-1.00588e-137
1.15092e-137
1.34454e-136
2.26587e-136
1.73216e-138
-1.02614e-136
3.82329e-136
-1.44695e-135
-9.69093e-136
-4.74442e-135
2.4014e-135
1.59209e-134
1.76284e-134
-5.13221e-135
-1.97101e-134
-2.48367e-134
-1.1643e-134
1.04154e-134
1.68362e-134
1.38429e-134
2.43269e-135
-3.75516e-135
-5.60228e-135
-3.27589e-135
-5.0731e-136
9.52072e-136
7.67448e-136
1.956e-136
-1.34201e-136
-1.66436e-136
-6.41048e-137
1.49218e-137
3.27674e-137
3.97579e-137
-2.24979e-137
-4.53355e-137
1.07454e-138
2.25146e-137
1.77439e-137
6.48448e-138
-2.71557e-139
-1.80906e-138
-1.07172e-138
-9.6363e-140
-6.65971e-152
2.8396e-151
1.17033e-150
-1.12843e-149
-8.41312e-149
7.37585e-148
-5.68691e-147
4.32601e-146
-3.20508e-145
-5.2019e-146
1.08154e-144
-6.58996e-144
4.41954e-143
-2.83733e-142
1.76065e-141
-1.0526e-140
6.04458e-140
-3.32117e-139
1.73705e-138
-8.58703e-138
3.9703e-137
-1.68796e-136
6.39396e-136
-2.00618e-135
3.98427e-135
6.8097e-135
-1.33471e-133
9.44442e-133
-4.99242e-132
2.17766e-131
-7.93282e-131
1.60877e-130
-3.29582e-130
-3.01839e-131
3.31648e-129
-1.08203e-128
1.75874e-128
-1.00137e-128
-1.21826e-127
4.46583e-127
-2.81733e-127
-5.48407e-127
4.20916e-126
-4.94001e-126
2.75448e-126
-9.6772e-126
-8.2065e-125
3.5036e-125
-1.45128e-123
3.96977e-123
5.38845e-123
-1.40027e-122
-1.62984e-122
7.84185e-123
3.98623e-122
2.16201e-122
-1.50645e-122
-1.41534e-122
-1.49401e-121
-1.24089e-121
-3.74376e-123
5.06108e-121
1.20195e-120
2.04391e-121
-2.34043e-120
-4.75795e-120
-3.09495e-120
3.06043e-120
9.05394e-120
7.36006e-120
1.13067e-120
-4.54379e-120
-6.37197e-120
-4.4402e-120
-1.11585e-120
1.27127e-120
1.88242e-120
1.26469e-120
3.92276e-121
-1.25976e-121
-2.2139e-121
-1.10384e-121
1.16537e-123
3.88066e-122
2.4938e-122
2.42129e-123
-7.61604e-123
-5.94174e-123
-2.92867e-123
3.96462e-123
3.26441e-122
-5.72042e-121
3.34856e-121
4.69734e-121
6.18702e-122
-1.37849e-121
-1.73819e-121
-8.17599e-122
1.2482e-122
3.01997e-122
-2.64075e-136
8.24601e-136
-4.92268e-135
3.9418e-134
-2.68333e-133
1.91919e-132
-1.34539e-131
8.27397e-131
-5.32389e-130
3.3041e-129
-2.24823e-128
1.1175e-127
-4.56634e-127
2.80472e-126
-7.66143e-126
4.29831e-125
-1.539e-124
8.15851e-124
-4.2183e-123
1.62523e-122
-5.51052e-122
1.54536e-121
-6.41678e-121
2.38788e-120
-3.99476e-120
6.83287e-120
-5.65023e-119
3.53505e-118
-1.62275e-117
5.36928e-117
-1.59218e-116
3.54923e-116
-2.85794e-116
-1.12813e-115
7.74489e-115
-2.59771e-114
5.28167e-114
7.46818e-114
-6.79246e-113
1.96078e-112
-1.8112e-112
-8.26764e-112
2.83002e-111
-3.49886e-111
-6.79587e-111
5.04065e-110
-7.58164e-110
-1.12017e-109
5.13803e-109
-2.88056e-109
-1.98993e-108
1.45535e-108
6.55697e-108
-2.36304e-109
-2.08442e-107
-1.71941e-107
4.02706e-107
8.93459e-107
1.50642e-107
-1.74127e-106
-2.60392e-106
-2.8173e-107
4.2165e-106
5.25468e-106
1.20133e-106
-8.98985e-106
-1.52035e-105
-1.00987e-105
5.75507e-106
1.00047e-106
4.83775e-106
5.5994e-105
3.81691e-105
1.20278e-105
-5.80887e-105
-7.78956e-105
-4.24515e-105
1.39099e-105
6.13669e-105
4.42405e-105
-1.53731e-105
-4.1467e-105
8.96826e-106
3.4976e-105
3.20338e-105
-9.93519e-106
-2.53923e-105
-2.29507e-105
-2.88797e-105
1.24711e-105
1.68629e-105
1.19144e-105
1.14414e-106
-6.06626e-107
-4.06027e-106
-2.74277e-106
-3.78337e-107
9.37017e-107
7.39043e-107
1.03651e-107
6.28715e-122
-2.48348e-121
1.37242e-120
-1.06666e-119
3.53203e-119
-2.52091e-118
1.88999e-117
-1.3671e-116
9.62951e-116
-1.24928e-114
8.45748e-114
-2.84921e-113
1.72335e-112
-1.04854e-111
3.65997e-111
-2.02063e-110
3.89297e-110
-1.94745e-109
9.74426e-109
-4.49968e-108
1.95221e-107
-7.8027e-107
2.80098e-106
-8.54445e-106
1.87442e-105
8.29671e-106
-9.51996e-105
-1.56397e-104
1.1228e-103
-3.22302e-103
9.89429e-103
-2.00136e-102
1.21774e-102
1.22204e-101
-5.47454e-102
1.17711e-100
-3.72246e-100
-1.69043e-99
7.22128e-99
-1.8919e-98
2.84192e-99
1.44903e-97
-3.09403e-97
5.36431e-98
1.51376e-96
-3.97176e-96
2.04446e-96
2.81272e-95
-1.0882e-94
-3.25272e-95
7.09685e-94
-1.60833e-94
-2.01481e-93
-8.06514e-94
3.40251e-93
5.57589e-93
-3.61936e-94
-1.13939e-92
-1.36509e-92
2.90357e-93
2.70208e-92
3.14875e-92
-3.82952e-93
-3.75332e-92
-5.91356e-92
-9.76513e-92
8.784e-91
-3.87479e-91
-1.6566e-91
1.26102e-90
1.91476e-90
-2.45673e-91
-2.95336e-90
-2.71096e-90
-6.54908e-91
5.21219e-91
1.82901e-90
1.41211e-90
2.65081e-91
-5.66333e-91
1.17915e-90
2.52893e-90
-3.61521e-91
-1.51754e-90
-2.20359e-90
-2.39077e-90
-1.06344e-90
1.39059e-90
1.52455e-90
1.09093e-90
1.82585e-91
-2.39892e-91
-2.58032e-91
-1.61664e-91
-1.7762e-92
3.66912e-92
3.22155e-92
1.24247e-92
-3.14431e-94
-3.00005e-93
-4.44068e-107
1.67873e-106
-1.70352e-105
1.08505e-104
-7.18096e-104
5.31253e-103
-2.78856e-102
1.93305e-101
-1.32842e-100
1.02835e-99
-5.81139e-99
3.09177e-98
-1.25915e-97
5.49523e-97
-2.16973e-96
1.59202e-95
-8.30597e-95
3.23912e-94
-7.67575e-94
3.44038e-93
-1.43245e-92
4.03099e-92
-1.0162e-91
9.06062e-92
-1.18218e-91
-1.07008e-90
8.86574e-90
-4.15358e-89
1.38628e-88
-5.16338e-88
1.38132e-87
-2.43281e-87
-7.77904e-88
1.37234e-86
-5.83789e-86
1.07907e-85
8.6764e-86
-1.0028e-84
2.8276e-84
-1.8903e-84
-5.50025e-84
3.00681e-83
-6.90752e-83
-8.24132e-83
4.4624e-82
-1.42923e-82
-1.1426e-81
-2.25809e-81
1.08844e-80
3.58628e-80
-8.71612e-80
-1.1317e-79
2.0949e-79
-2.45499e-79
-4.68998e-80
1.70768e-78
8.53488e-79
-6.35522e-78
-1.09305e-77
8.44502e-78
4.92332e-77
4.49979e-77
-4.45433e-77
-2.77351e-76
-3.00463e-76
5.50834e-77
5.49932e-76
8.47342e-76
2.84259e-76
-6.43074e-76
-1.33995e-75
-1.1622e-75
-6.29869e-76
6.52318e-76
1.17816e-75
7.62567e-76
4.21562e-76
1.06563e-75
1.1967e-75
6.32709e-76
-5.83954e-76
-1.67748e-75
-2.53005e-75
-1.4491e-75
5.48773e-77
9.65274e-76
1.34061e-75
8.817e-76
2.39852e-76
-1.68988e-76
-2.66571e-76
-1.64e-76
-5.2518e-77
2.32744e-77
3.57185e-77
2.00363e-77
1.49342e-78
-3.01608e-78
-3.17352e-78
-7.35083e-79
-1.77478e-92
6.62586e-92
-5.73412e-91
4.45013e-90
-3.47636e-89
2.38869e-88
-1.6296e-87
1.04738e-86
-6.49801e-86
3.89126e-85
-2.33959e-84
1.36078e-83
-7.97381e-83
4.11949e-82
-1.91507e-81
8.85554e-81
-3.85718e-80
1.70086e-79
-7.06807e-79
2.19895e-78
-6.2977e-78
1.70398e-77
-4.5757e-77
9.29839e-77
1.12947e-76
-1.58487e-76
1.68526e-75
-6.881e-75
2.43938e-74
-6.82475e-74
1.31672e-73
-1.46486e-73
-2.05918e-73
2.2227e-72
-5.87812e-72
3.85711e-72
3.34593e-71
-1.65168e-70
4.077e-70
-1.45581e-70
-2.6512e-69
8.18488e-69
-3.14755e-69
-4.53905e-68
1.26907e-67
3.6887e-68
-7.98922e-67
9.43616e-67
4.01746e-66
-1.04674e-65
-1.28761e-65
4.10764e-65
7.23757e-65
-1.4891e-64
-2.88079e-64
4.35995e-64
1.07647e-63
-3.75099e-64
-3.70213e-63
-3.50093e-63
7.04584e-63
1.84839e-62
8.90689e-63
-2.4986e-62
-7.40033e-62
-9.01242e-62
3.94684e-62
2.3411e-61
1.99758e-61
1.19458e-61
4.68493e-62
-1.54802e-61
-3.52791e-61
-3.16269e-61
-8.02339e-61
-7.78466e-61
-7.32864e-61
3.71009e-61
1.19167e-60
1.54396e-60
1.40478e-60
6.1429e-61
-4.56008e-61
-8.94681e-61
-8.22956e-61
-4.76514e-61
-1.37134e-61
8.57984e-62
1.40123e-61
9.67711e-62
3.1433e-62
-6.04819e-63
-1.65579e-62
-1.11166e-62
-3.31939e-63
1.02065e-63
1.70691e-63
9.39434e-64
1.46338e-64
-1.7559e-64
-1.19844e-78
4.07758e-78
-3.30265e-77
2.45439e-76
3.08471e-75
-2.32923e-74
1.58538e-73
-1.06075e-72
6.88348e-72
-4.33123e-71
2.63869e-70
-1.55406e-69
8.83249e-69
-4.83462e-68
2.5427e-67
-1.28145e-66
6.16826e-66
-2.8246e-65
1.2244e-64
-3.82148e-64
1.47344e-63
-5.16166e-63
1.62685e-62
-4.46957e-62
-3.67239e-62
-1.68141e-62
-1.29436e-61
4.12788e-61
-1.45295e-60
3.99481e-60
-7.99907e-60
7.72897e-60
2.05537e-59
-1.17707e-58
2.2894e-58
2.62793e-58
-3.32718e-57
1.11085e-56
-1.50544e-56
-2.91787e-56
1.84245e-55
-2.58432e-55
-8.01494e-55
4.07445e-54
-3.092e-54
-2.60305e-53
7.32428e-53
1.0751e-52
-6.1184e-52
2.52771e-52
3.48943e-51
-1.4204e-52
-8.14949e-51
2.97009e-51
3.60481e-50
-7.62471e-51
-1.11337e-49
-7.56521e-50
1.63645e-49
6.31098e-49
3.59139e-49
-2.48971e-48
-5.30183e-48
1.01289e-47
1.84036e-47
1.58174e-47
-1.36543e-47
-8.20124e-47
2.17198e-48
-7.00505e-47
-9.83988e-47
-1.01691e-46
-3.87221e-47
-8.53624e-47
1.25211e-46
2.43011e-46
3.58909e-46
3.06064e-46
1.43683e-46
-2.814e-47
-3.00948e-46
-2.24557e-46
-1.45604e-46
-6.83443e-47
-1.21467e-47
1.58564e-47
2.10575e-47
1.44327e-47
5.7094e-48
-1.28781e-50
-1.94664e-48
-1.87126e-48
-6.44562e-49
5.98146e-50
2.34753e-49
1.52948e-49