/*--------------------------------*- C++ -*----------------------------------*\
  =========                 |
  \\      /  F ield         | OpenFOAM: The Open Source CFD Toolbox
   \\    /   O peration     | Website:  https://openfoam.org
    \\  /    A nd           | Version:  13
     \\/     M anipulation  |
\*---------------------------------------------------------------------------*/
FoamFile
{
    format      ascii;
    class       volScalarField;
    location    "1.3";
    object      T;
}
// * * * * * * * * * * * * * * * * * * * * * * * * * * * * * * * * * * * * * //

dimensions      [0 0 0 1 0 0 0];

internalField   nonuniform List<scalar> 
10000
(
0
0
0
0
0
0
0
0
0
0
0
0
0
0
0
0
0
0
0
0
0
0
0
0
0
0
0
0
0
0
0
0
0
0
0
0
0
0
0
0
0
0
0
0
0
0
0
0
0
0
0
0
0
0
0
0
0
0
0
0
0
0
0
0
0
0
0
0
0
0
0
0
0
0
0
0
0
0
0
0
0
0
0
0
0
0
0
0
0
0
0
0
0
0
0
0
0
0
0
0
0
0
0
0
0
0
0
0
0
0
0
0
0
0
0
0
0
0
0
0
0
0
0
0
0
0
0
0
0
0
0
0
0
0
0
0
0
0
0
0
0
0
0
0
0
0
0
0
0
0
0
0
0
0
0
0
0
0
0
0
0
0
0
0
0
0
0
0
0
0
0
0
0
0
0
0
0
0
0
0
0
0
0
0
0
0
0
0
0
0
0
0
0
0
0
0
0
0
0
0
0
0
0
0
0
0
0
0
0
0
0
0
0
0
0
0
0
0
0
0
0
0
0
0
0
0
0
0
0
0
0
0
0
0
0
0
0
0
0
0
0
0
0
0
0
0
0
0
0
0
0
0
0
0
0
0
0
0
0
0
0
0
0
0
0
0
0
0
0
0
0
0
0
0
0
0
0
0
0
0
0
0
0
0
0
0
0
0
0
0
0
0
0
0
0
0
0
0
0
0
0
0
0
0
0
0
0
0
0
0
0
0
0
0
0
0
0
0
0
0
0
0
0
0
0
0
0
0
0
0
0
0
0
0
0
0
0
0
0
0
0
0
0
0
0
0
0
0
0
0
0
0
0
0
0
0
0
0
0
0
0
0
0
0
0
0
0
0
0
0
0
0
0
0
0
0
0
0
0
0
0
0
0
0
0
0
0
0
0
0
0
0
0
0
0
0
0
0
0
0
0
0
0
0
0
0
0
0
0
0
0
0
0
0
0
0
0
0
0
0
0
0
0
0
0
0
0
0
0
0
0
0
0
0
0
0
0
0
0
0
0
0
0
0
0
0
0
0
0
0
0
0
0
0
0
0
0
0
0
0
0
0
0
0
0
0
0
0
0
0
0
0
0
0
0
0
0
0
0
0
0
0
0
0
0
0
0
0
0
0
0
0
0
0
0
0
0
0
0
0
0
0
0
0
0
0
0
0
0
0
0
0
0
0
0
0
0
0
0
0
0
0
0
0
0
0
0
0
0
0
0
0
0
0
0
0
0
0
0
0
0
0
0
0
0
0
0
0
0
0
0
0
0
0
0
0
0
0
0
0
0
0
0
0
0
0
0
0
0
0
0
0
0
0
0
0
0
0
0
0
0
0
0
0
0
0
0
0
0
0
0
0
0
0
0
0
0
0
0
0
0
0
0
0
0
0
0
0
0
0
0
0
0
0
0
0
0
0
0
0
0
0
0
0
0
0
0
0
0
0
0
0
0
0
0
0
0
0
0
0
0
0
0
0
0
0
0
0
0
0
0
0
0
0
0
0
0
0
0
0
0
0
0
0
0
0
0
0
0
0
0
0
0
0
0
0
0
0
0
0
0
0
0
0
0
0
0
0
0
0
0
0
0
0
0
0
0
0
0
0
0
0
0
0
0
0
0
0
0
0
0
0
0
0
0
0
0
0
0
0
0
0
0
0
0
0
0
0
0
0
0
0
0
0
0
0
0
0
0
0
0
0
0
0
0
0
0
0
0
0
0
0
0
0
0
0
0
0
0
0
0
0
0
0
0
0
0
0
0
0
0
0
0
0
0
0
0
0
0
0
0
0
0
0
0
0
0
0
0
0
0
0
0
0
0
0
0
0
0
0
0
0
0
0
0
0
0
0
0
0
0
0
0
0
0
0
0
0
0
0
0
0
0
0
0
0
0
0
0
0
0
0
0
0
0
0
0
0
0
0
0
0
0
0
0
0
0
0
0
0
0
0
0
0
0
0
0
0
0
0
0
0
0
0
0
0
0
0
0
0
0
0
0
0
0
0
0
0
0
0
0
0
0
0
0
0
0
0
0
0
0
0
0
0
0
0
0
0
0
0
0
0
0
0
0
0
0
0
0
0
0
0
0
0
0
0
0
0
0
0
0
0
0
0
0
0
0
0
0
0
0
0
0
0
0
0
0
0
0
0
0
0
0
0
0
0
0
0
0
0
0
0
0
0
0
0
0
0
0
0
0
0
0
0
0
0
0
0
0
0
0
0
0
0
0
0
0
0
0
0
0
0
0
0
0
0
0
0
0
0
0
0
0
0
0
0
0
0
0
0
0
0
0
0
0
0
0
0
0
0
0
0
0
0
0
0
0
0
0
0
0
0
0
0
0
0
0
0
0
0
0
0
0
0
0
0
0
0
0
0
0
0
0
0
0
0
0
0
0
0
0
0
0
0
0
0
0
0
0
0
0
0
0
0
0
0
0
0
0
0
0
0
0
0
0
0
0
0
0
0
0
0
0
0
0
0
0
0
0
0
0
0
0
0
0
0
0
0
0
0
0
0
0
0
0
0
0
0
0
0
0
0
0
0
0
0
0
0
0
0
0
0
0
0
0
0
0
0
0
0
0
0
0
0
0
0
0
0
0
0
0
0
0
0
0
0
0
0
0
0
0
0
0
0
0
0
0
0
0
0
0
0
0
0
0
0
0
0
0
0
0
0
0
0
0
0
0
0
0
0
0
0
0
0
0
0
0
0
0
0
0
0
0
0
0
0
0
0
0
0
0
0
0
0
0
0
0
0
0
0
0
0
0
0
0
0
0
0
0
0
0
0
0
0
0
0
0
0
0
0
0
0
0
0
0
0
0
0
0
0
0
0
0
0
0
0
0
0
0
0
0
0
0
0
0
0
0
0
0
0
0
0
0
0
0
0
0
0
0
0
0
0
0
0
0
0
0
0
0
0
0
0
0
0
0
0
0
0
0
0
0
0
0
0
0
0
0
0
0
0
0
0
0
0
0
0
0
0
0
0
0
0
0
0
0
0
0
0
0
0
0
0
0
0
0
0
0
0
0
0
0
0
0
0
0
0
0
0
0
0
0
0
0
0
0
0
0
0
0
0
0
0
0
0
0
0
0
0
0
0
0
0
0
0
0
0
0
0
0
0
0
0
0
0
0
0
0
0
0
0
0
0
0
0
0
0
0
0
0
0
0
0
0
0
0
0
0
0
0
0
0
0
0
0
0
0
0
0
0
0
0
0
0
0
0
0
0
0
0
0
0
0
0
0
0
0
0
0
0
0
0
0
0
0
0
0
0
0
0
0
0
0
0
0
0
0
0
0
0
0
0
0
0
0
0
0
0
0
0
0
0
0
0
0
0
0
0
0
0
0
0
0
0
0
0
0
0
0
0
0
0
0
0
0
0
0
0
0
0
0
0
0
0
0
0
0
0
0
0
0
0
0
0
0
0
0
0
0
0
0
0
0
0
0
0
0
0
0
0
0
0
0
0
0
0
0
0
0
0
0
0
0
0
0
0
0
0
0
0
0
0
0
0
0
0
0
0
0
0
0
0
0
0
0
0
0
0
0
0
0
0
0
0
0
0
0
0
0
0
0
0
0
0
0
0
0
0
0
0
0
0
0
0
0
0
0
0
0
0
0
0
0
0
0
0
0
0
0
0
0
0
0
0
0
0
0
0
0
0
0
0
0
0
0
0
0
0
0
0
0
0
0
0
0
0
0
0
0
0
0
0
0
0
0
0
0
0
0
0
0
0
0
0
0
0
0
0
0
0
0
0
0
0
0
0
0
0
0
0
0
0
0
0
0
0
0
0
0
0
0
0
0
0
0
0
0
0
0
0
0
0
0
0
0
0
0
0
0
0
0
0
0
0
0
0
0
0
0
0
0
0
0
0
0
0
0
0
0
0
0
0
0
0
0
0
0
0
0
0
0
0
0
0
0
0
0
0
0
0
0
0
0
0
0
0
0
0
0
0
0
0
0
0
0
0
0
0
0
0
0
0
0
0
0
0
0
0
0
0
0
0
0
0
0
0
0
0
0
0
0
0
0
0
0
0
0
0
0
0
0
0
0
0
0
0
0
0
0
0
0
0
0
0
0
0
0
0
0
0
0
0
0
0
0
0
0
0
0
0
0
0
0
0
0
0
0
0
0
0
0
0
0
0
0
0
0
0
0
0
0
0
0
0
0
0
0
0
0
0
0
0
0
0
0
0
0
0
0
0
0
0
0
0
0
0
0
0
0
0
0
0
0
0
0
0
0
0
0
0
0
0
0
0
0
0
0
0
0
0
0
0
0
0
0
0
0
0
0
0
0
0
0
0
0
0
0
0
0
0
0
0
0
0
0
0
0
0
0
0
0
0
0
0
0
0
0
0
0
0
0
0
0
0
0
0
0
0
0
0
0
0
0
0
0
0
0
0
0
0
0
0
0
0
0
0
0
0
0
0
0
0
0
0
0
0
0
0
0
0
0
0
0
0
0
0
0
0
0
0
0
0
0
0
0
0
0
0
0
0
0
0
0
0
0
0
0
0
0
0
0
0
0
0
0
0
0
0
0
0
0
0
0
0
0
0
0
0
0
0
0
0
0
0
0
0
0
0
0
0
0
0
0
0
0
0
0
0
0
0
0
0
0
0
0
0
0
0
0
0
0
0
0
0
0
0
0
0
0
0
0
0
0
0
0
0
0
0
0
0
0
0
0
0
0
0
0
0
0
0
0
0
0
0
0
0
0
0
0
0
0
0
0
0
0
0
0
0
0
0
0
0
0
0
0
0
0
0
0
0
0
0
0
0
0
0
0
0
0
0
0
0
0
0
0
0
0
0
0
0
0
0
0
0
0
0
0
0
0
0
0
0
0
0
0
0
0
0
0
0
0
0
0
0
0
0
0
0
0
0
0
0
0
0
0
0
0
0
0
0
0
0
0
0
0
0
0
0
0
0
0
0
0
0
0
0
0
0
0
0
0
0
0
0
0
0
0
0
0
0
0
0
0
0
0
0
0
0
0
0
0
0
0
0
0
0
0
0
0
0
0
0
0
0
0
0
0
0
0
0
0
0
0
0
0
0
0
0
0
0
0
0
0
0
0
0
0
0
0
0
0
0
0
0
0
0
0
0
0
0
0
0
0
0
0
0
0
0
0
0
0
0
0
0
0
0
0
0
0
0
0
0
0
0
0
0
0
0
0
0
0
0
0
0
0
0
0
0
0
0
0
0
0
0
0
0
0
0
0
0
0
0
0
0
0
0
0
0
0
0
0
0
0
0
0
0
0
0
0
0
0
0
0
0
0
0
0
0
0
0
0
0
0
0
0
0
0
0
0
0
0
0
0
0
0
0
0
0
0
0
0
0
0
0
0
0
0
0
0
0
0
0
0
0
0
0
0
0
0
0
0
0
0
0
0
0
0
0
0
0
0
0
0
0
0
0
0
0
0
0
0
0
0
0
0
0
0
0
0
0
0
0
0
0
0
0
0
0
0
0
0
0
0
0
0
0
0
0
0
0
0
0
0
0
0
0
0
0
0
0
0
0
0
0
0
0
0
0
0
0
0
-1.23516e-321
0
-2.1146e-321
2.36904e-320
-4.11853e-320
-4.716e-319
5.04362e-318
-6.42063e-317
3.69159e-317
2.5004e-317
-4.01808e-317
5.23328e-316
-4.94107e-315
1.89289e-315
1.97268e-315
1.34987e-315
2.72356e-316
-3.86602e-316
-2.36277e-315
2.0156e-315
5.90555e-316
-1.1455e-315
-2.18927e-316
2.51841e-316
2.46799e-316
-3.46281e-316
2.40141e-315
-2.09202e-316
-1.10204e-315
-6.97876e-316
2.50112e-316
-2.79059e-316
-8.22354e-317
2.62482e-317
-4.18579e-317
2.07693e-317
3.17204e-317
-4.5867e-318
1.48184e-317
-5.89396e-319
-2.9028e-318
-2.50722e-318
8.4044e-319
9.85612e-320
2.09681e-320
-1.4985e-320
5.75784e-320
-3.51972e-320
-3.89126e-320
3.95747e-321
3.72525e-321
7.06514e-322
0
0
0
0
0
0
0
0
0
0
0
0
0
0
0
0
0
0
0
0
0
0
0
0
0
0
0
0
0
1.50196e-321
-2.76776e-320
3.7005e-319
-4.05541e-318
4.20903e-317
-3.02062e-316
2.2515e-315
-2.6249e-314
2.28726e-313
-1.71787e-312
7.84349e-312
-8.08441e-311
4.41367e-310
-1.64573e-309
2.74207e-309
-1.43665e-308
2.09803e-307
-2.83805e-307
1.53768e-306
-1.40029e-306
-2.49333e-307
-5.36584e-307
3.10296e-307
5.53308e-305
-6.89471e-304
6.96865e-303
-7.37361e-302
6.66117e-301
-5.03806e-300
9.52521e-300
1.0284e-300
-3.97175e-300
-2.28313e-300
-3.99108e-301
1.45914e-301
2.29453e-301
4.51177e-301
-1.86868e-300
7.77499e-301
1.41194e-300
-1.50671e-300
5.57388e-300
-2.19744e-301
-2.35778e-300
-4.9881e-300
4.16773e-301
7.09529e-301
1.02226e-300
9.4612e-301
6.37503e-301
-3.20371e-301
-4.40523e-301
-1.47008e-301
3.13452e-302
5.50733e-302
5.78828e-303
-1.29442e-302
-1.12969e-302
-3.73602e-303
1.46032e-304
1.55444e-303
6.49053e-304
9.20088e-305
-5.48381e-305
6.7611e-305
-1.21164e-304
1.34688e-305
2.28933e-305
4.09691e-306
-5.85464e-306
-2.55067e-306
6.45698e-307
5.68481e-307
1.46845e-307
3.05196e-309
-2.36118e-308
1.90222e-308
-2.15146e-308
-1.90276e-309
0
0
0
0
0
0
2.54444e-321
-6.34578e-320
3.01736e-319
-2.00474e-317
2.30917e-316
-3.94105e-315
3.40906e-314
-2.83433e-313
7.27336e-314
1.81591e-312
1.37952e-312
-7.21948e-312
1.21134e-310
-2.4163e-309
4.51623e-308
-6.12688e-307
7.55903e-306
-8.95925e-305
1.04875e-303
-1.22886e-302
1.47305e-301
-1.1036e-300
8.60517e-300
-9.32317e-299
6.09291e-298
-6.26535e-297
4.80939e-296
-3.22221e-295
1.66627e-294
-3.00029e-294
3.44312e-293
-2.61226e-292
1.45449e-291
-7.27021e-292
4.80773e-292
-7.08345e-291
4.53703e-290
-6.36594e-291
-3.57413e-290
2.67634e-289
-2.99594e-288
4.9202e-287
-3.84442e-286
2.3239e-285
-3.32371e-285
-1.91781e-285
8.12145e-286
1.45511e-285
8.69366e-286
2.22204e-286
2.95724e-286
-3.5457e-285
1.57271e-285
1.38181e-285
-5.97142e-286
1.09007e-284
-1.2743e-285
-8.12757e-285
-2.60568e-285
7.13517e-286
8.84566e-286
3.88475e-286
3.93161e-286
-1.51058e-286
-2.30206e-286
-1.11313e-286
1.79104e-289
2.16465e-287
1.68435e-288
-7.56808e-288
-6.10617e-288
-3.09307e-288
3.34346e-289
1.20976e-288
6.60145e-289
1.06926e-289
-5.88985e-291
-1.79268e-290
1.15708e-290
-7.11695e-290
8.42137e-290
-5.44243e-291
-7.56096e-291
-6.66965e-291
-2.91821e-292
7.80714e-292
3.27331e-292
3.10562e-293
-2.419e-293
-1.17988e-293
1.17385e-294
-3.54841e-293
3.98477e-294
2.25634e-293
-4.28681e-313
1.50311e-311
-1.80342e-310
3.45649e-309
-3.3778e-308
6.19747e-307
-1.16298e-305
9.89741e-305
-1.71103e-303
1.54707e-302
-2.59997e-301
1.89633e-300
-3.01788e-299
4.99967e-298
-5.30588e-298
3.30636e-297
-1.86807e-297
-6.75066e-297
9.21705e-296
-1.43478e-294
2.18726e-293
4.261e-293
-6.44318e-292
6.05256e-291
-4.43393e-290
8.92126e-290
-3.41702e-287
3.99871e-286
-4.25021e-285
4.32793e-284
-4.18857e-283
1.84227e-282
-1.69519e-281
1.59747e-280
-1.43759e-279
1.24172e-278
-1.73425e-278
1.43301e-277
-1.40291e-276
3.80996e-276
-1.37184e-276
3.83537e-276
-2.75944e-275
1.0704e-274
6.28738e-275
-3.13209e-274
2.50619e-273
-1.61194e-272
9.70274e-272
-3.15399e-271
-2.98693e-271
3.13668e-270
3.4627e-269
-2.18824e-269
-1.74525e-269
-4.12971e-270
2.43624e-270
3.08888e-270
-1.51382e-270
2.0528e-269
-5.15181e-270
-9.20855e-270
-5.93157e-270
1.03934e-269
-3.89435e-270
1.43399e-270
-7.77293e-270
6.67479e-271
8.55866e-271
1.20924e-270
-8.71245e-271
-6.36958e-272
2.13676e-272
6.96842e-273
-6.35536e-274
-1.9419e-273
-7.2251e-274
8.23969e-274
6.17997e-274
1.84507e-274
-9.6479e-275
1.22657e-275
2.75454e-275
1.2306e-275
-5.79824e-276
9.58131e-275
-5.47526e-275
-3.06216e-275
-6.29611e-276
6.48972e-277
8.449e-277
-1.09276e-276
1.01206e-276
2.61092e-277
-4.4041e-278
-3.31067e-278
-8.24968e-278
4.4849e-278
2.64172e-278
3.65395e-279
9.16452e-298
-1.4232e-296
2.25567e-295
-3.7423e-294
6.00855e-293
-9.15741e-292
1.29986e-290
-1.6525e-289
1.6923e-288
-2.8752e-287
2.89767e-286
-4.74016e-285
7.84241e-284
-8.53743e-283
6.96767e-282
-5.86789e-282
2.56455e-281
-4.13241e-280
2.50313e-280
3.5999e-279
-4.15901e-278
5.7663e-277
-7.92878e-276
7.9701e-275
-6.89807e-274
4.43502e-273
-5.60507e-272
7.63316e-272
-1.09019e-270
1.90138e-269
2.22972e-268
-1.93553e-267
6.85196e-266
-5.49904e-265
2.44524e-264
-9.64353e-264
7.01834e-263
9.80528e-263
-8.97979e-262
2.61293e-261
-1.66933e-260
1.06528e-259
2.37004e-259
-6.10087e-261
-1.19202e-259
-7.02033e-260
-3.80149e-259
1.89716e-258
-7.71306e-258
-9.48654e-258
5.7322e-256
-6.91966e-255
3.27505e-254
-3.22615e-254
-1.51705e-254
5.14435e-255
9.13e-255
1.67975e-254
1.79609e-254
-9.96032e-255
-1.31236e-254
-5.95765e-255
-9.14656e-255
6.92933e-255
1.16968e-254
6.30665e-256
-5.84043e-255
-3.68912e-255
-8.71118e-256
4.77672e-256
6.82709e-256
2.82848e-256
-1.634e-257
-6.64479e-257
-1.56682e-257
-2.10693e-258
2.18055e-258
-7.71741e-259
-9.86999e-259
-4.03131e-259
5.68937e-260
7.88551e-260
4.3053e-259
-7.69217e-260
-2.10812e-259
-1.1748e-259
8.9358e-260
-1.18586e-259
9.28754e-261
1.02296e-260
-7.01631e-262
2.55103e-261
-6.96212e-262
-7.5038e-262
-4.05782e-262
-4.28146e-264
8.51759e-263
4.69796e-263
2.33329e-264
-3.0998e-264
-2.68456e-284
6.1208e-282
-6.61291e-281
1.21687e-279
-2.28084e-278
4.20073e-277
-7.6043e-276
1.35258e-274
-2.36315e-273
2.29816e-272
-3.74759e-271
6.19683e-270
-4.70663e-269
7.11574e-268
-1.10952e-266
1.69252e-265
-1.18072e-264
6.57444e-265
3.94793e-265
-1.16912e-264
1.69573e-263
-2.29202e-262
3.02846e-261
-3.90992e-260
4.92898e-259
-6.06276e-258
7.2703e-257
-8.49194e-256
5.33291e-255
-5.65698e-254
6.07049e-253
-6.28441e-252
-1.0742e-251
1.28226e-250
-1.06794e-249
8.77255e-249
-6.97488e-248
-2.87788e-248
3.93333e-247
-1.02128e-245
6.52008e-245
-9.32753e-245
-6.29999e-245
-8.71684e-244
6.65575e-243
-1.55475e-242
5.38779e-242
-3.24378e-242
6.77624e-242
3.18027e-242
-3.58215e-241
2.68018e-240
-1.66755e-239
4.77799e-240
1.64291e-239
1.2359e-240
1.08743e-239
-6.2956e-240
-7.52058e-240
-3.59564e-239
5.76964e-240
1.59061e-239
1.12493e-239
4.51136e-240
-3.30925e-240
-2.81122e-240
-1.38895e-240
1.83917e-241
2.91011e-241
2.793e-241
6.7866e-242
-2.36077e-242
-1.33141e-242
-3.64129e-243
-4.9656e-243
-3.9682e-243
-1.75378e-243
-3.34131e-244
1.07147e-244
1.037e-244
4.09211e-245
-4.58537e-245
1.66541e-245
2.13958e-244
1.24372e-244
-1.10565e-244
-1.72626e-244
-8.64534e-245
2.55821e-245
1.9693e-245
4.60334e-246
-4.53973e-247
-6.08403e-247
-2.47245e-247
3.5491e-248
4.69434e-248
1.19488e-248
-1.57874e-249
1.35266e-250
-1.03686e-249
6.47865e-268
-6.3722e-267
8.87731e-266
-5.49509e-265
-1.07567e-263
4.82266e-262
-8.79386e-261
1.41215e-259
-1.97705e-258
3.29751e-257
-4.18043e-256
6.00828e-255
-8.44906e-254
9.80996e-253
-1.22486e-251
1.51689e-250
-1.76995e-249
1.57785e-248
-8.73916e-248
6.89098e-247
-6.88681e-246
6.34465e-245
-4.72844e-244
-2.17618e-243
1.18983e-243
2.00585e-242
-2.45728e-242
-4.86218e-241
1.24618e-239
-1.20602e-238
1.03288e-237
-8.27851e-237
7.76535e-236
-3.05091e-235
2.5153e-234
1.08045e-235
-6.41697e-233
4.99741e-232
-9.80489e-232
-1.42122e-231
2.74412e-230
-4.85315e-230
9.13172e-231
-4.0773e-229
3.46309e-228
-6.91145e-228
4.75139e-227
-9.27302e-227
6.46974e-226
-9.25449e-225
6.94304e-225
5.51017e-225
-6.70922e-225
-4.765e-225
1.7094e-225
-3.27159e-225
5.65163e-225
1.34887e-224
5.32833e-225
-6.68706e-225
-9.16371e-225
-3.00033e-225
1.16532e-226
2.20933e-225
1.34347e-225
5.67969e-226
-2.48152e-226
-2.21092e-226
-1.5887e-226
-2.34211e-227
2.70654e-227
-1.18041e-227
-5.7799e-228
1.79002e-227
1.06796e-227
-2.12601e-228
-4.57144e-228
5.97567e-228
4.36646e-228
-1.22039e-228
-7.65129e-229
-3.07418e-228
-5.68118e-229
1.23861e-229
2.27591e-229
1.53262e-229
-3.09599e-230
-4.45245e-230
-1.57854e-230
-1.84015e-231
7.13794e-232
1.64768e-231
2.85499e-232
-4.58859e-233
-1.39745e-232
-3.60379e-233
2.04937e-233
1.72875e-233
5.96241e-235
-2.60247e-234
-7.84797e-253
6.75599e-252
-1.2288e-250
2.26193e-249
-3.08001e-248
7.20285e-249
2.76673e-246
-4.90388e-245
8.24077e-244
-1.4259e-242
1.52454e-241
-2.36658e-240
3.68425e-239
-5.61528e-238
6.66943e-237
-9.62907e-236
1.04122e-234
-1.43271e-233
9.59456e-233
-4.65681e-232
5.62143e-231
-7.14685e-230
8.82702e-229
6.63092e-228
-3.28993e-228
-1.53783e-227
1.42564e-226
-1.53661e-225
-3.1301e-225
4.16267e-224
-4.02151e-223
3.80748e-222
-9.07767e-221
3.55973e-220
-1.60617e-219
1.2478e-218
7.5477e-218
-6.00345e-217
9.50562e-217
-5.91061e-216
-1.23883e-215
5.31808e-216
8.05477e-215
-3.5986e-214
-3.1781e-213
1.28011e-213
4.16567e-212
-1.00549e-211
-1.94879e-210
2.57986e-210
8.25804e-211
-6.88181e-210
2.10751e-210
3.80164e-210
-2.73539e-211
1.01338e-209
6.05531e-210
-6.12648e-210
-8.80474e-210
-4.64979e-210
-7.56658e-211
2.02605e-210
1.77223e-210
6.68057e-211
1.40082e-211
-3.52361e-211
-2.66335e-212
-1.60754e-211
-5.3918e-212
-2.26442e-212
-2.03052e-212
1.47043e-212
1.63642e-212
3.07437e-214
-2.39174e-213
3.60771e-213
5.3907e-213
-5.56235e-214
-4.75015e-213
-2.81683e-213
-2.06658e-213
7.61748e-214
4.57069e-214
1.86564e-214
3.3818e-215
-3.47049e-215
-9.76268e-216
-1.79474e-215
-1.30443e-216
1.21142e-216
1.21027e-216
-1.59788e-217
-2.59351e-217
-9.96713e-218
-4.48789e-219
2.55457e-218
9.43929e-219
-2.6871e-219
-2.75734e-219
-3.51567e-220
-1.10959e-237
1.32736e-236
-1.61184e-235
2.27423e-234
-3.99928e-233
5.67079e-232
-7.41725e-231
4.911e-230
-1.48776e-229
-1.77456e-227
4.51329e-226
-4.68179e-225
3.25709e-224
-3.85152e-223
7.10802e-222
-7.54106e-221
6.26436e-220
-7.47932e-219
1.68934e-217
-1.2942e-216
1.32822e-215
-1.37162e-214
1.94185e-213
-1.89588e-212
2.14661e-211
-1.54691e-210
6.86173e-210
-4.29131e-210
6.23565e-208
-4.49499e-208
-2.95138e-207
1.26341e-206
-1.02631e-205
-2.5893e-205
4.98743e-204
-3.81998e-203
1.1039e-202
-6.92445e-202
4.3837e-201
-1.24303e-200
4.42029e-202
-2.90816e-200
1.17585e-199
-8.01661e-199
-2.05821e-198
9.92512e-198
-1.40877e-197
-1.7343e-196
2.14725e-195
-6.73767e-195
4.00254e-195
1.06018e-194
-1.69714e-195
-1.08347e-194
-4.48831e-195
1.66586e-195
3.6568e-195
2.4198e-195
5.30017e-196
-2.88209e-196
-1.23199e-195
7.12153e-197
-2.13127e-196
1.46187e-196
3.18745e-196
-2.57253e-196
3.78059e-196
-3.41447e-197
3.79857e-197
1.08969e-197
-3.55205e-197
4.56285e-198
1.30421e-197
2.58026e-198
-7.29833e-198
1.48535e-198
-3.13058e-200
1.32953e-198
-1.53386e-198
5.82937e-199
-2.54351e-198
-4.93269e-199
-2.87016e-199
-1.07546e-199
5.88297e-200
8.7479e-201
-2.38671e-200
-1.2909e-200
-8.0509e-201
1.08623e-201
4.65436e-202
4.38723e-202
1.05449e-202
-6.70537e-203
-6.00069e-203
-2.96039e-204
8.73056e-204
3.10669e-204
-1.14691e-205
-3.443e-205
-6.41903e-223
9.10764e-222
-1.31034e-220
2.3023e-219
-2.94262e-218
4.9624e-217
-8.34165e-216
1.3754e-214
-2.22431e-213
3.52681e-212
-5.48028e-211
8.34197e-210
1.72272e-209
-3.43557e-208
-6.09705e-207
9.20378e-206
-1.84425e-205
1.56894e-203
-2.1258e-202
5.69661e-202
-5.77366e-201
-6.90587e-200
8.87605e-199
-3.14056e-199
-1.85878e-196
2.08629e-195
-1.40391e-194
1.37152e-193
-1.33351e-192
9.28967e-193
-3.06565e-192
3.04341e-191
-2.51282e-190
-5.64001e-190
5.20982e-189
-3.6341e-188
2.43699e-187
-1.01883e-186
2.85437e-186
-1.42715e-185
4.61757e-186
-5.70453e-185
2.88782e-184
-1.72484e-183
9.07953e-183
-8.77379e-183
-1.34716e-182
3.56653e-181
-1.75335e-180
4.52984e-180
-1.88798e-183
-8.76141e-180
2.38171e-181
1.17597e-180
2.4617e-180
3.87254e-180
-1.09219e-180
-1.38109e-180
-1.2096e-180
1.57338e-180
-2.50124e-181
-1.29604e-180
9.62814e-181
1.19103e-180
3.53911e-181
-4.23526e-181
-4.15541e-181
-2.12072e-181
-2.57013e-183
5.25891e-182
5.1107e-182
7.83962e-183
-6.64093e-183
-5.87e-183
-9.75184e-184
9.39268e-183
-1.50638e-182
1.70526e-182
-4.2322e-183
-5.45855e-183
-3.28193e-184
-1.8377e-183
1.6942e-184
2.74619e-184
4.41178e-185
-2.39582e-185
-2.01273e-186
5.22873e-186
7.65138e-186
-1.57295e-186
-1.21525e-186
1.63188e-187
2.44506e-187
7.0082e-188
6.90399e-190
-5.131e-189
-1.05217e-189
1.85745e-190
1.7609e-190
1.36206e-190
5.45014e-208
-7.54828e-207
1.33845e-205
-2.41527e-204
3.62198e-203
-7.82584e-202
1.30201e-200
-2.10385e-199
4.43734e-198
-5.13049e-197
1.05678e-195
-1.5938e-194
1.28714e-193
-2.46711e-192
2.61639e-191
-2.40235e-190
3.12972e-189
-2.53674e-188
4.77e-187
-4.26791e-186
3.13236e-185
-3.55924e-184
2.19179e-183
-4.14296e-182
3.02736e-181
-1.70023e-180
1.64378e-179
-6.66388e-179
1.30122e-177
-6.94593e-177
2.24398e-176
6.22221e-176
-5.7645e-175
4.28878e-174
1.43969e-174
-1.95703e-173
1.11086e-172
-6.34425e-172
3.1649e-171
-1.29297e-170
-2.03743e-171
4.31141e-170
-2.11713e-169
1.27796e-168
-5.9694e-168
-9.83017e-169
1.84851e-167
-1.40088e-166
7.67292e-166
-2.52471e-165
-2.91275e-165
3.89082e-165
3.84722e-165
1.38598e-165
-4.07894e-165
-4.33359e-165
9.30197e-166
3.31401e-165
2.63381e-165
-5.37704e-166
-1.07524e-165
-1.33272e-165
-4.53731e-166
1.6743e-166
2.9275e-166
1.67977e-166
3.46262e-167
-2.2935e-167
-2.50832e-167
-7.75566e-168
-1.42357e-167
1.04252e-167
-4.6794e-167
1.06595e-166
-1.73603e-167
-4.66892e-167
-2.46781e-167
2.35556e-167
1.05763e-167
3.97006e-168
-2.4969e-168
-2.10394e-168
-3.98873e-169
-4.61571e-170
1.29403e-169
6.75926e-170
-5.35812e-171
-1.91768e-170
-6.73914e-171
-7.71114e-173
1.08291e-171
3.80205e-172
-1.49418e-173
-2.62289e-173
-9.08286e-174
2.37183e-174
2.47945e-174
-4.71142e-176
3.60053e-175
9.69645e-176
1.53628e-193
-2.02146e-192
-1.91549e-191
1.16733e-189
-4.01693e-188
8.94127e-187
-1.4606e-185
2.48524e-184
-4.13384e-183
6.50205e-182
-8.89634e-181
1.16599e-179
-1.57266e-178
1.96068e-177
-2.48809e-176
3.07495e-175
-3.4444e-174
3.71676e-173
-3.87388e-172
4.25623e-171
-4.53869e-170
4.1867e-169
-4.11159e-168
3.40755e-167
-3.05363e-166
2.61724e-165
-2.10237e-164
1.62498e-163
-1.16156e-162
7.94666e-162
-5.31474e-161
3.22772e-160
-1.94846e-159
7.26959e-159
-3.43508e-158
1.35392e-157
-5.79323e-157
2.04038e-156
-4.162e-156
7.90107e-156
1.01834e-155
-9.7053e-155
5.44014e-154
-1.80656e-153
4.57603e-153
-5.67394e-153
-4.64272e-152
3.88219e-151
-1.13388e-150
6.71974e-151
4.45486e-150
-4.09667e-150
-4.05192e-150
-5.83019e-151
2.14829e-150
3.23698e-150
1.98875e-150
-8.17696e-151
-1.04805e-150
-1.09634e-150
-9.00634e-151
-1.88248e-151
6.86223e-152
6.14768e-151
6.92249e-151
3.64263e-151
-1.24053e-151
-8.06694e-151
-4.54052e-151
3.22033e-151
4.80064e-151
1.99502e-151
-6.61791e-152
-1.8623e-151
-8.23516e-152
1.02426e-152
3.21233e-152
1.75409e-152
4.76862e-154
-3.92682e-153
-2.38083e-153
-3.18738e-154
3.40795e-154
2.04139e-154
3.75903e-155
-2.15967e-155
-1.53051e-155
-2.7024e-156
1.06075e-156
8.03403e-157
2.68246e-157
-1.19826e-157
-9.9675e-158
-1.10636e-158
1.90783e-158
9.22884e-159
8.29809e-160
-1.72603e-159
-7.70385e-160
4.19218e-161
-1.98835e-177
6.03e-177
-8.88032e-176
1.49016e-174
-2.44395e-173
1.32474e-172
-1.9079e-171
2.94725e-170
-4.44726e-169
-8.97339e-168
1.40881e-166
-1.83456e-165
2.54476e-164
-3.7747e-163
5.03637e-162
-5.9968e-161
6.87735e-160
-7.60659e-159
8.08535e-158
-9.39176e-157
1.06712e-155
-1.03086e-154
1.09574e-153
-9.74751e-153
9.70843e-152
-9.43337e-151
7.35457e-150
-6.57581e-149
4.54939e-148
-2.76838e-147
2.17549e-146
-1.06488e-145
7.50778e-145
-2.98915e-144
1.86485e-143
-4.65324e-143
2.43803e-142
-1.23376e-141
1.61159e-141
-5.02894e-141
-6.41114e-141
4.07982e-140
-2.77784e-139
5.21946e-139
-7.87325e-139
1.56889e-138
7.17373e-138
-7.55419e-137
2.27534e-136
8.56131e-137
-1.11932e-135
4.95916e-136
1.10786e-135
1.56338e-136
3.40959e-136
-1.78707e-136
-5.34685e-136
2.25601e-136
-6.35448e-136
-4.57449e-136
-2.81274e-137
1.49241e-136
3.44954e-136
2.17728e-136
-7.91422e-137
-2.65366e-136
-3.64125e-136
3.22815e-137
3.61486e-136
1.67931e-136
-1.41307e-137
-1.17495e-136
-7.81238e-137
-4.41611e-138
1.74524e-137
1.34341e-137
2.68998e-138
-1.45729e-138
-1.48601e-138
-4.65381e-139
7.75285e-140
1.31284e-139
4.12171e-140
-1.36466e-141
-6.86769e-141
-2.64745e-141
9.44426e-143
4.29323e-142
1.64663e-142
1.41686e-143
-4.41116e-143
-4.36581e-143
2.11513e-143
1.90508e-143
4.58209e-144
-8.1844e-145
-8.55365e-145
-1.92248e-145
3.44359e-146
2.62916e-146
-2.28935e-162
2.94274e-161
2.10403e-160
-3.94017e-159
-5.8679e-158
1.00901e-156
-1.5575e-155
2.3596e-154
-3.49951e-153
-3.43911e-154
3.79524e-152
-5.13934e-151
6.99479e-150
-9.29338e-149
1.20503e-147
-1.5239e-146
1.87822e-145
-2.25446e-144
2.63327e-143
-2.99041e-142
3.2987e-141
-3.53098e-140
3.66364e-139
-3.68021e-138
3.5744e-137
-3.3517e-136
3.02934e-135
-2.63416e-134
2.19901e-133
-1.75803e-132
1.34207e-131
-7.24344e-131
4.90584e-130
-3.18876e-129
1.49268e-128
-6.14675e-128
1.87164e-127
-8.3276e-127
1.17314e-126
-2.58737e-126
-7.92265e-126
3.67574e-125
-2.12113e-124
1.93581e-124
-5.99888e-124
1.51503e-123
1.86669e-123
2.35918e-122
-8.02628e-122
-1.6334e-121
6.00211e-121
9.80046e-122
-6.18137e-121
-6.08074e-121
-9.11776e-122
4.36763e-121
3.18769e-121
1.04394e-120
1.96941e-121
-3.84613e-121
-8.7635e-121
-4.7944e-121
-2.50196e-121
4.67953e-121
5.50457e-121
1.25153e-121
-2.23665e-121
-2.36743e-121
-4.84779e-122
1.30757e-121
6.91926e-122
1.50374e-122
-8.47672e-123
-8.95776e-123
-3.14512e-123
3.15799e-124
8.66519e-124
3.87419e-124
2.22149e-125
-6.34271e-125
-3.41188e-125
-4.4573e-126
3.81595e-126
2.38269e-126
3.99263e-127
-2.0089e-127
-1.39449e-127
-2.54896e-128
8.61878e-129
8.77354e-129
1.10346e-127
-2.60368e-126
1.89431e-126
1.29018e-126
-3.39625e-127
-3.0193e-127
-1.26157e-127
4.36574e-128
2.99571e-128
3.08765e-129
-1.53523e-146
1.58348e-145
-1.74075e-144
2.74607e-143
-3.67469e-142
5.21045e-141
-7.25697e-140
8.91698e-139
-1.1513e-137
1.44016e-136
-1.98592e-135
2.01255e-134
-1.6784e-133
2.11101e-132
-1.19426e-131
1.37868e-130
-1.03247e-129
1.16557e-128
-1.32007e-127
1.16046e-126
-9.12475e-126
6.08035e-125
-5.92144e-124
5.72826e-123
-2.45499e-122
-5.30158e-122
1.87898e-120
-1.61631e-119
1.28972e-118
-8.48177e-118
5.64092e-117
-3.54651e-116
1.86054e-115
-9.8949e-115
4.80618e-114
-2.80975e-113
1.30794e-112
-4.3374e-112
1.01895e-111
-3.53654e-112
-1.19878e-110
7.28883e-110
-1.64339e-109
5.14565e-109
-5.47166e-109
-1.894e-108
1.32662e-107
-3.74879e-107
-4.14395e-108
1.20875e-106
-2.83642e-106
-1.98232e-106
4.25857e-106
4.30565e-106
-7.00516e-107
-8.97393e-106
-7.81221e-106
2.73235e-106
1.13924e-105
1.00008e-105
1.58668e-106
-5.27709e-106
-6.05126e-106
-2.73149e-106
2.93211e-107
1.0576e-106
6.37329e-107
-1.86763e-107
-4.99312e-107
5.4931e-107
-2.60446e-107
-1.90439e-106
6.29589e-107
9.14276e-107
3.74783e-107
-1.10307e-107
-3.31062e-107
-1.19363e-107
8.70336e-108
7.3404e-108
2.18475e-108
-2.91473e-108
-2.86356e-108
5.25781e-110
1.00476e-108
5.29309e-109
9.58474e-110
-1.26724e-109
-8.85085e-110
5.73362e-111
1.83758e-110
8.37235e-111
-7.21198e-114
-1.07025e-111
-6.8127e-112
-8.87678e-113
1.22272e-112
5.57415e-113
1.8568e-114
-8.0201e-114
7.72641e-132
-9.4269e-131
9.67247e-130
-1.48817e-128
9.62446e-128
-1.36783e-126
2.03072e-125
-2.94466e-124
4.17604e-123
-1.1044e-121
1.52817e-120
-1.06066e-119
1.3097e-118
-1.65012e-117
1.20825e-116
-1.39476e-115
5.73618e-115
-5.90063e-114
6.51687e-113
-6.9476e-112
7.1805e-111
-7.18524e-110
6.95258e-109
-6.49633e-108
5.85248e-107
-2.94262e-106
1.46853e-105
1.44352e-105
-1.55818e-104
1.0934e-103
-7.5886e-103
4.96135e-102
-3.04516e-101
1.73947e-100
7.67011e-100
4.28866e-99
-1.84529e-98
5.8912e-98
-1.13674e-97
-3.14088e-97
4.76342e-96
-2.24614e-95
4.69457e-95
-1.32902e-94
-3.40039e-95
5.08492e-94
-3.06644e-93
8.44805e-93
-2.32529e-93
-7.96895e-92
1.03348e-91
1.66924e-91
-1.52612e-91
-2.3029e-91
-5.37628e-92
2.38975e-91
3.75951e-91
2.43136e-91
-2.64562e-92
-2.18165e-91
-2.34628e-91
-1.34426e-91
-2.90766e-92
1.86147e-92
1.58056e-92
4.68188e-92
-4.35384e-91
3.07671e-91
8.2349e-92
-1.32843e-91
-7.72245e-93
1.24612e-91
4.68132e-92
-1.11179e-92
-2.06077e-92
-2.41853e-92
9.19575e-93
7.73189e-93
1.76524e-93
-7.3398e-94
-3.55967e-93
-8.46982e-94
1.82826e-93
1.07481e-93
3.73779e-94
-1.1236e-94
-1.81268e-94
-4.52697e-95
1.56655e-95
1.52357e-95
3.83824e-96
-1.22426e-96
-1.12819e-96
-3.31701e-97
9.30943e-98
8.08804e-98
1.74789e-98
-4.01938e-99
-3.42894e-99
-3.2154e-100
-1.04438e-116
1.24008e-115
-2.3912e-114
3.01427e-113
-3.96569e-112
5.8378e-111
-6.1328e-110
8.53971e-109
-1.18334e-107
1.86063e-106
-2.15641e-105
2.3675e-104
-2.01081e-103
1.83266e-102
-1.52721e-101
2.36085e-100
-2.69813e-99
2.35791e-98
-1.30847e-97
1.28906e-96
-1.28895e-95
9.52588e-95
-6.70384e-94
2.91137e-93
-2.40063e-92
2.01236e-91
-1.45109e-90
9.90035e-90
-5.70632e-89
4.41022e-88
-2.91646e-87
1.80261e-86
-8.00004e-86
3.78362e-85
-1.85518e-84
7.20121e-84
-2.37948e-83
4.39785e-83
-3.32068e-83
-3.58701e-82
1.77912e-81
-1.1112e-80
3.2605e-80
-5.4491e-80
1.38689e-80
1.7864e-79
-2.7993e-79
-1.39831e-78
-2.87662e-78
2.85412e-77
-1.28662e-77
-6.46834e-77
3.86355e-77
-4.91875e-77
-7.67736e-77
8.47984e-77
3.50354e-76
2.10929e-76
-3.97257e-76
-9.71115e-76
-7.81686e-76
1.20114e-76
8.89689e-76
1.22369e-75
4.60651e-76
-2.85155e-76
-5.63044e-76
-3.72923e-76
-6.85859e-77
1.72909e-76
8.37296e-77
-2.16162e-77
-9.47206e-77
3.96169e-77
4.48395e-77
3.23079e-77
-1.33169e-78
-5.9097e-78
-1.03899e-77
-3.55054e-78
1.5763e-78
2.23001e-78
1.07132e-78
-7.2e-80
-3.01823e-79
-1.55876e-79
-1.03357e-80
2.72622e-80
1.52393e-80
1.9514e-81
-1.81942e-81
-1.17085e-81
-1.97247e-82
1.18681e-82
7.30459e-83
1.06311e-83
-8.09466e-84
-3.76241e-84
-2.07835e-85
3.86755e-85
-8.26763e-102
9.78031e-101
-1.59333e-99
2.45434e-98
-3.81379e-97
5.23812e-96
-7.1738e-95
9.29687e-94
-1.16955e-92
1.4285e-91
-1.76232e-90
2.12e-89
-2.58894e-88
2.82453e-87
-2.80692e-86
2.79838e-85
-2.67323e-84
2.62142e-83
-2.48454e-82
1.86003e-81
-1.30418e-80
9.1311e-80
-6.81634e-79
4.75286e-78
-1.21828e-77
7.11058e-77
-5.15917e-76
3.34741e-75
-2.22052e-74
1.33615e-73
-7.09639e-73
3.65361e-72
-2.10347e-71
9.8686e-71
-4.13538e-70
1.38364e-69
-3.56587e-69
6.95129e-69
1.23773e-68
-2.06914e-67
1.16364e-66
-4.33394e-66
1.00641e-65
-1.45466e-65
-3.55758e-65
2.08823e-64
-4.57734e-64
-1.36206e-65
3.84642e-63
-9.4711e-63
-9.32426e-64
2.42514e-62
2.23588e-62
-3.36539e-62
-1.25492e-61
-1.07765e-61
1.2844e-61
3.03755e-61
2.6821e-61
-7.60281e-62
-3.41464e-61
-3.34297e-61
-1.0015e-61
1.35977e-61
2.05089e-61
1.8424e-61
2.87837e-62
-2.6623e-62
-1.48365e-61
9.29476e-62
1.43385e-61
-6.08828e-62
-1.2975e-61
-8.58526e-62
-2.0998e-62
2.60066e-62
2.78316e-62
1.22146e-62
-9.36783e-65
-3.2758e-63
-2.07168e-63
-4.14246e-64
2.77264e-64
2.3575e-64
7.0401e-65
-1.07237e-65
-1.77677e-65
-6.77994e-66
7.60673e-68
1.21677e-66
5.14097e-67
2.30537e-68
-7.28602e-68
-3.10461e-68
-7.599e-70
4.16929e-69
1.58341e-69
-7.2182e-71
-2.50682e-70
-3.34405e-71
-1.07218e-87
1.20299e-86
-1.82089e-85
2.69388e-84
6.65523e-83
-1.0099e-81
1.39419e-80
-1.88431e-79
2.48632e-78
-3.20089e-77
4.01797e-76
-4.91423e-75
5.8518e-74
-6.77894e-73
7.63305e-72
-8.34641e-71
8.85397e-70
-9.10227e-69
9.05805e-68
-6.85828e-67
6.28301e-66
-5.63263e-65
4.85419e-64
-4.01888e-63
2.36151e-63
-7.12219e-63
6.23794e-62
-4.30043e-61
2.84501e-60
-1.77701e-59
1.0429e-58
-5.7111e-58
2.89083e-57
-1.33401e-56
5.48894e-56
-1.93158e-55
5.24967e-55
-6.83673e-55
-3.26119e-54
3.12245e-53
-1.51453e-52
5.07493e-52
-1.09954e-51
5.57975e-52
6.45511e-51
-2.56372e-50
2.00381e-50
1.37761e-49
-5.30858e-49
8.12349e-49
1.85809e-48
-2.77443e-48
1.63211e-48
-1.0929e-47
1.72411e-47
3.38198e-47
2.03619e-47
-1.59985e-47
-4.45251e-47
-2.17251e-47
-2.37223e-47
1.25739e-46
1.46084e-46
2.68278e-47
-4.23267e-47
-5.9436e-47
-3.84004e-47
-6.23301e-47
2.72805e-46
-1.12936e-46
-1.45364e-46
-7.95674e-47
-1.69073e-47
7.45118e-48
1.53276e-47
8.18573e-48
1.9773e-48
-1.30468e-48
-1.22916e-48
-4.23792e-49
5.2225e-50
6.96098e-50
4.15822e-50
1.12308e-50
-1.63688e-51
-2.79183e-51
-1.03871e-51
-4.81705e-54
1.68152e-52
7.28574e-53
4.33867e-54
-1.3911e-53
-1.60727e-54
1.0861e-54
6.13973e-55
8.24792e-56
-7.62526e-56
-1.76046e-56
2.31544e-56
-1.77067e-57
3.27541e-71
-3.56728e-70
3.37099e-69
-4.75334e-68
2.96412e-67
-3.86018e-66
5.22657e-65
-6.89455e-64
8.87416e-63
1.96203e-62
-1.8919e-60
2.33968e-59
-2.70496e-58
8.37265e-58
-7.94659e-57
8.49823e-56
-8.73292e-55
8.6896e-54
-8.36014e-53
7.76637e-52
-6.95624e-51
1.95937e-49
-1.67999e-48
1.33018e-47
-1.01142e-46
7.33786e-46