/*--------------------------------*- C++ -*----------------------------------*\
  =========                 |
  \\      /  F ield         | OpenFOAM: The Open Source CFD Toolbox
   \\    /   O peration     | Website:  https://openfoam.org
    \\  /    A nd           | Version:  13
     \\/     M anipulation  |
\*---------------------------------------------------------------------------*/
FoamFile
{
    format      ascii;
    class       volScalarField;
    location    "1.5";
    object      T;
}
// * * * * * * * * * * * * * * * * * * * * * * * * * * * * * * * * * * * * * //

dimensions      [0 0 0 1 0 0 0];

internalField   nonuniform List<scalar> 
10000
(
0
0
0
0
0
0
0
0
0
0
0
0
0
0
0
0
0
0
0
0
0
0
0
0
0
0
0
0
0
0
0
0
0
0
0
0
0
0
0
0
0
0
0
0
0
0
0
0
0
0
0
0
0
0
0
0
0
0
0
0
0
0
0
0
0
0
0
0
0
0
0
0
0
0
0
0
0
0
0
0
0
0
0
0
0
0
0
0
0
0
0
0
0
0
0
0
0
0
0
0
0
0
0
0
0
0
0
0
0
0
0
0
0
0
0
0
0
0
0
0
0
0
0
0
0
0
0
0
0
0
0
0
0
0
0
0
0
0
0
0
0
0
0
0
0
0
0
0
0
0
0
0
0
0
0
0
0
0
0
0
0
0
0
0
0
0
0
0
0
0
0
0
0
0
0
0
0
0
0
0
0
0
0
0
0
0
0
0
0
0
0
0
0
0
0
0
0
0
0
0
0
0
0
0
0
0
0
0
0
0
0
0
0
0
0
0
0
0
0
0
0
0
0
0
0
0
0
0
0
0
0
0
0
0
0
0
0
0
0
0
0
0
0
0
0
0
0
0
0
0
0
0
0
0
0
0
0
0
0
0
0
0
0
0
0
0
0
0
0
0
0
0
0
0
0
0
0
0
0
0
0
0
0
0
0
0
0
0
0
0
0
0
0
0
0
0
0
0
0
0
0
0
0
0
0
0
0
0
0
0
0
0
0
0
0
0
0
0
0
0
0
0
0
0
0
0
0
0
0
0
0
0
0
0
0
0
0
0
0
0
0
0
0
0
0
0
0
0
0
0
0
0
0
0
0
0
0
0
0
0
0
0
0
0
0
0
0
0
0
0
0
0
0
0
0
0
0
0
0
0
0
0
0
0
0
0
0
0
0
0
0
0
0
0
0
0
0
0
0
0
0
0
0
0
0
0
0
0
0
0
0
0
0
0
0
0
0
0
0
0
0
0
0
0
0
0
0
0
0
0
0
0
0
0
0
0
0
0
0
0
0
0
0
0
0
0
0
0
0
0
0
0
0
0
0
0
0
0
0
0
0
0
0
0
0
0
0
0
0
0
0
0
0
0
0
0
0
0
0
0
0
0
0
0
0
0
0
0
0
0
0
0
0
0
0
0
0
0
0
0
0
0
0
0
0
0
0
0
0
0
0
0
0
0
0
0
0
0
0
0
0
0
0
0
0
0
0
0
0
0
0
0
0
0
0
0
0
0
0
0
0
0
0
0
0
0
0
0
0
0
0
0
0
0
0
0
0
0
0
0
0
0
0
0
0
0
0
0
0
0
0
0
0
0
0
0
0
0
0
0
0
0
0
0
0
0
0
0
0
0
0
0
0
0
0
0
0
0
0
0
0
0
0
0
0
0
0
0
0
0
0
0
0
0
0
0
0
0
0
0
0
0
0
0
0
0
0
0
0
0
0
0
0
0
0
0
0
0
0
0
0
0
0
0
0
0
0
0
0
0
0
0
0
0
0
0
0
0
0
0
0
0
0
0
0
0
0
0
0
0
0
0
0
0
0
0
0
0
0
0
0
0
0
0
0
0
0
0
0
0
0
0
0
0
0
0
0
0
0
0
0
0
0
0
0
0
0
0
0
0
0
0
0
0
0
0
0
0
0
0
0
0
0
0
0
0
0
0
0
0
0
0
0
0
0
0
0
0
0
0
0
0
0
0
0
0
0
0
0
0
0
0
0
0
0
0
0
0
0
0
0
0
0
0
0
0
0
0
0
0
0
0
0
0
0
0
0
0
0
0
0
0
0
0
0
0
0
0
0
0
0
0
0
0
0
0
0
0
0
0
0
0
0
0
0
0
0
0
0
0
0
0
0
0
0
0
0
0
0
0
0
0
0
0
0
0
0
0
0
0
0
0
0
0
0
0
0
0
0
0
0
0
0
0
0
0
0
0
0
0
0
0
0
0
0
0
0
0
0
0
0
0
0
0
0
0
0
0
0
0
0
0
0
0
0
0
0
0
0
0
0
0
0
0
0
0
0
0
0
0
0
0
0
0
0
0
0
0
0
0
0
0
0
0
0
0
0
0
0
0
0
0
0
0
0
0
0
0
0
0
0
0
0
0
0
0
0
0
0
0
0
0
0
0
0
0
0
0
0
0
0
0
0
0
0
0
0
0
0
0
0
0
0
0
0
0
0
0
0
0
0
0
0
0
0
0
0
0
0
0
0
0
0
0
0
0
0
0
0
0
0
0
0
0
0
0
0
0
0
0
0
0
0
0
0
0
0
0
0
0
0
0
0
0
0
0
0
0
0
0
0
0
0
0
0
0
0
0
0
0
0
0
0
0
0
0
0
0
0
0
0
0
0
0
0
0
0
0
0
0
0
0
0
0
0
0
0
0
0
0
0
0
0
0
0
0
0
0
0
0
0
0
0
0
0
0
0
0
0
0
0
0
0
0
0
0
0
0
0
0
0
0
0
0
0
0
0
0
0
0
0
0
0
0
0
0
0
0
0
0
0
0
0
0
0
0
0
0
0
0
0
0
0
0
0
0
0
0
0
0
0
0
0
0
0
0
0
0
0
0
0
0
0
0
0
0
0
0
0
0
0
0
0
0
0
0
0
0
0
0
0
0
0
0
0
0
0
0
0
0
0
0
0
0
0
0
0
0
0
0
0
0
0
0
0
0
0
0
0
0
0
0
0
0
0
0
0
0
0
0
0
0
0
0
0
0
0
0
0
0
0
0
0
0
0
0
0
0
0
0
0
0
0
0
0
0
0
0
0
0
0
0
0
0
0
0
0
0
0
0
0
0
0
0
0
0
0
0
0
0
0
0
0
0
0
0
0
0
0
0
0
0
0
0
0
0
0
0
0
0
0
0
0
0
0
0
0
0
0
0
0
0
0
0
0
0
0
0
0
0
0
0
0
0
0
0
0
0
0
0
0
0
0
0
0
0
0
0
0
0
0
0
0
0
0
0
0
0
0
0
0
0
0
0
0
0
0
0
0
0
0
0
0
0
0
0
0
0
0
0
0
0
0
0
0
0
0
0
0
0
0
0
0
0
0
0
0
0
0
0
0
0
0
0
0
0
0
0
0
0
0
0
0
0
0
0
0
0
0
0
0
0
0
0
0
0
0
0
0
0
0
0
0
0
0
0
0
0
0
0
0
0
0
0
0
0
0
0
0
0
0
0
0
0
0
0
0
0
0
0
0
0
0
0
0
0
0
0
0
0
0
0
0
0
0
0
0
0
0
0
0
0
0
0
0
0
0
0
0
0
0
0
0
0
0
0
0
0
0
0
0
0
0
0
0
0
0
0
0
0
0
0
0
0
0
0
0
0
0
0
0
0
0
0
0
0
0
0
0
0
0
0
0
0
0
0
0
0
0
0
0
0
0
0
0
0
0
0
0
0
0
0
0
0
0
0
0
0
0
0
0
0
0
0
0
0
0
0
0
0
0
0
0
0
0
0
0
0
0
0
0
0
0
0
0
0
0
0
0
0
0
0
0
0
0
0
0
0
0
0
0
0
0
0
0
0
0
0
0
0
0
0
0
0
0
0
0
0
0
0
0
0
0
0
0
0
0
0
0
0
0
0
0
0
0
0
0
0
0
0
0
0
0
0
0
0
0
0
0
0
0
0
0
0
0
0
0
0
0
0
0
0
0
0
0
0
0
0
0
0
0
0
0
0
0
0
0
0
0
0
0
0
0
0
0
0
0
0
0
0
0
0
0
0
0
0
0
0
0
0
0
0
0
0
0
0
0
0
0
0
0
0
0
0
0
0
0
0
0
0
0
0
0
0
0
0
0
0
0
0
0
0
0
0
0
0
0
0
0
0
0
0
0
0
0
0
0
0
0
0
0
0
0
0
0
0
0
0
0
0
0
0
0
0
0
0
0
0
0
0
0
0
0
0
0
0
0
0
0
0
0
0
0
0
0
0
0
0
0
0
0
0
0
0
0
0
0
0
0
0
0
0
0
0
0
0
0
0
0
0
0
0
0
0
0
0
0
0
0
0
0
0
0
0
0
0
0
0
0
0
0
0
0
0
0
0
0
0
0
0
0
0
0
0
0
0
0
0
0
0
0
0
0
0
0
0
0
0
0
0
0
0
0
0
0
0
0
0
0
0
0
0
0
0
0
0
0
0
0
0
0
0
0
0
0
0
0
0
0
0
0
0
0
0
0
0
0
0
0
0
0
0
0
0
0
0
0
0
0
0
0
0
0
0
0
0
0
0
0
0
0
0
0
0
0
0
0
0
0
0
0
0
0
0
0
0
0
0
0
0
0
0
0
0
0
0
0
0
0
0
0
0
0
0
0
0
0
0
0
0
0
0
0
0
0
0
0
0
0
0
0
0
0
0
0
0
0
0
0
0
0
0
0
0
0
0
0
0
0
0
0
0
0
0
0
0
0
0
0
0
0
0
0
0
0
0
0
0
0
0
0
0
0
0
0
0
0
0
0
0
0
0
0
0
0
0
0
0
0
0
0
0
0
0
0
0
0
0
0
0
0
0
0
0
0
0
0
0
0
0
0
0
0
0
0
0
0
0
0
0
0
0
0
0
0
0
0
0
0
0
0
0
0
0
0
0
0
0
0
0
0
0
0
0
0
0
0
0
0
0
0
0
0
0
0
0
0
0
0
0
0
0
0
0
0
0
0
0
0
0
0
0
0
0
0
0
0
0
0
0
0
0
0
0
0
0
0
0
0
0
0
0
0
0
0
0
0
0
0
0
0
0
0
0
0
0
0
0
0
0
0
0
0
0
0
0
0
0
0
0
0
0
0
0
0
0
0
0
0
0
0
0
0
0
0
0
0
0
0
0
0
0
0
0
0
0
0
0
0
0
0
0
0
0
0
0
0
0
0
0
0
0
0
0
0
0
0
0
0
0
0
0
0
0
0
0
0
0
0
0
0
0
0
0
0
0
0
0
0
0
0
0
0
0
0
0
0
0
0
0
0
0
0
0
0
0
0
0
0
0
0
0
0
0
0
0
0
0
0
0
0
0
0
0
0
0
0
0
0
0
0
0
0
0
0
0
0
0
0
0
0
0
0
0
0
0
0
0
0
0
0
0
0
0
0
0
0
0
0
0
0
0
0
0
0
0
0
0
0
0
0
0
0
0
0
0
0
0
0
0
0
0
0
0
0
0
0
0
0
0
0
0
0
0
0
0
0
0
0
0
0
0
0
0
0
0
0
0
0
0
0
0
0
0
0
0
0
0
0
0
0
0
0
0
0
0
0
0
0
0
0
0
0
0
0
0
0
0
0
0
0
0
0
0
0
0
0
0
0
0
0
0
0
0
0
0
0
0
0
0
0
0
0
0
0
0
0
0
0
0
0
0
0
0
0
0
0
0
0
0
0
0
0
0
0
0
0
0
0
0
0
0
0
0
0
0
0
0
0
0
0
0
0
0
0
0
0
0
0
0
0
0
0
0
0
0
0
0
0
0
0
0
0
0
0
0
0
0
0
0
0
0
0
0
0
0
0
0
0
0
0
0
0
0
0
0
0
0
-2.32705e-321
9.72815e-321
-1.25493e-321
-1.38734e-320
6.98016e-320
-7.47793e-319
5.05105e-318
-2.42527e-317
7.34842e-317
-3.92916e-316
9.35358e-318
1.98377e-316
-1.24269e-316
3.66305e-316
1.08831e-314
-1.09037e-314
-1.28907e-314
-2.14309e-315
4.54311e-315
8.70445e-315
5.54351e-315
-9.95364e-315
5.74612e-315
5.61712e-315
-1.41024e-315
-2.90809e-315
-1.63422e-315
3.51379e-315
-3.08282e-314
1.11205e-314
1.32644e-314
4.53765e-315
2.62837e-315
-1.53885e-316
-1.78819e-315
-1.41594e-315
1.14658e-315
-7.20529e-316
-8.35525e-316
2.71267e-316
-1.24674e-316
1.21548e-316
-5.19183e-317
2.64016e-317
-6.45036e-318
-1.3454e-317
1.24817e-318
1.81365e-318
2.76252e-318
-1.29147e-318
1.15542e-319
-4.66714e-319
-1.24401e-319
3.50688e-320
-6.86405e-320
6.04391e-320
2.89424e-320
4.41695e-321
-1.03754e-322
-7.16395e-322
2.42092e-322
0
0
0
0
0
0
0
0
0
0
0
0
0
0
0
0
0
0
0
0
1.28457e-321
-2.39622e-320
2.29805e-319
-2.30201e-318
2.5461e-317
-2.43322e-316
2.20045e-315
-1.39323e-314
9.45731e-314
-9.30126e-313
7.09381e-312
-4.8973e-311
2.1462e-310
-1.89724e-309
1.00548e-308
-4.30563e-308
1.44015e-307
-4.8183e-307
3.47621e-306
-1.94234e-306
2.53961e-306
9.12339e-307
-4.37329e-306
2.23705e-305
-2.26526e-304
1.8345e-303
-1.04286e-302
4.37903e-302
-1.57169e-301
-3.44322e-301
1.35188e-299
-5.52749e-299
3.51448e-299
1.75086e-299
-7.73675e-302
-5.51747e-300
-5.75404e-300
-4.63795e-300
1.94474e-300
7.07155e-300
-4.0967e-300
-3.84926e-300
1.07324e-299
-5.34294e-299
1.40042e-299
4.64292e-299
2.60498e-299
-2.0202e-299
-6.34619e-300
-1.02004e-299
-9.16732e-300
-1.16004e-300
5.73623e-300
4.54622e-300
-9.51283e-301
-1.50545e-300
-6.51827e-301
2.0022e-301
3.25605e-301
1.78186e-301
-2.67863e-303
-6.47757e-302
-4.49211e-302
-9.82047e-304
7.24964e-303
3.5521e-303
2.16542e-303
-3.39846e-304
-1.39227e-303
-7.83953e-304
3.38002e-304
3.63509e-304
-8.15568e-306
-1.17497e-304
-4.564e-305
-4.64281e-306
2.85695e-306
2.2192e-306
-1.88175e-306
2.0067e-306
-1.50793e-307
0
0
0
-1.56125e-321
3.83e-320
-2.54429e-319
3.9047e-318
-6.32472e-317
2.60708e-316
-1.46222e-314
1.45652e-313
-2.13423e-312
1.58978e-311
-1.13509e-310
2.64948e-311
5.77248e-310
1.7221e-310
9.25492e-310
-7.42166e-309
-5.73768e-308
2.87563e-306
-2.9871e-305
3.20306e-304
-3.42167e-303
3.91941e-302
-4.84901e-301
4.77508e-300
-3.17589e-299
2.20496e-298
-1.97325e-297
1.33869e-296
-1.18168e-295
8.05078e-295
-4.86678e-294
2.46393e-293
-7.59462e-293
5.47291e-292
-2.33462e-291
5.72389e-291
6.62573e-292
-7.10098e-293
-2.48588e-291
-8.53054e-290
1.22517e-289
-2.64122e-289
1.74845e-288
-6.422e-288
-1.52479e-287
9.5507e-286
-1.15521e-284
3.88136e-284
-7.99986e-285
-1.4253e-284
-7.65231e-285
-1.20957e-285
1.08882e-285
2.09988e-285
3.48873e-285
-7.21492e-285
-1.11341e-285
2.94069e-285
-3.20219e-284
3.40912e-284
2.50603e-284
-6.31248e-285
-1.37847e-284
-5.69276e-285
-9.92132e-285
3.07463e-285
4.76953e-285
2.44306e-285
5.70242e-286
-1.33533e-285
1.58469e-286
2.77188e-286
1.97428e-286
1.44723e-286
2.55066e-287
-5.79558e-287
-4.95612e-287
-1.32447e-287
2.52857e-288
2.57489e-288
7.43058e-289
-1.59809e-289
1.28579e-291
-1.1869e-288
5.82761e-289
4.97602e-289
5.96534e-290
-1.52026e-289
-7.73715e-290
-1.46508e-290
3.12579e-291
2.86361e-291
7.1516e-292
-2.84283e-292
3.09563e-291
-7.33856e-292
-1.84013e-291
-1.02913e-309
3.07433e-308
-3.20225e-307
5.27807e-306
-4.46575e-305
7.03813e-304
-1.13848e-302
8.38808e-302
-1.24404e-300
9.71886e-300
-1.40127e-298
8.83403e-298
-1.20381e-296
1.71611e-295
-1.65813e-295
8.64833e-295
-4.24229e-295
-1.96482e-294
2.31e-293
-3.09389e-292
4.04304e-291
-5.76894e-291
6.12014e-290
-9.49417e-289
1.33296e-287
-1.75779e-286
-7.16017e-286
7.41546e-285
-5.87638e-284
4.32801e-283
-2.83934e-282
2.49203e-281
-2.11298e-280
1.70172e-279
-1.34398e-278
1.05074e-277
-1.48937e-277
5.75966e-277
-6.7178e-277
5.54503e-276
6.49141e-277
-9.80572e-276
1.15907e-274
-1.1237e-273
6.15291e-274
-2.55424e-274
-1.63139e-274
3.82894e-272
-4.65233e-271
3.27093e-270
-1.19428e-269
1.06211e-269
2.43712e-269
4.01758e-269
-7.63922e-270
-3.12448e-269
-2.49015e-269
-9.15717e-270
8.13699e-270
-8.11024e-269
4.49298e-269
3.97864e-269
1.43062e-269
-7.64933e-269
4.09283e-269
-5.14999e-269
5.90909e-269
4.58925e-270
1.26709e-270
-1.06452e-269
9.77369e-270
2.65329e-270
8.10985e-271
2.80061e-271
6.04251e-272
1.51186e-271
-6.33664e-272
-6.30015e-272
-2.38101e-272
-2.84465e-273
4.59818e-273
-8.04676e-275
-7.52764e-274
-3.24513e-274
-9.93063e-276
-1.29781e-273
1.18325e-273
3.35864e-274
-9.30437e-275
-9.47675e-275
-2.27627e-275
1.00034e-275
-1.7359e-275
5.36519e-276
7.24181e-276
1.9236e-276
6.68763e-276
-4.32507e-276
-2.21939e-276
-2.0873e-277
1.92629e-294
-2.50349e-293
3.43299e-292
-4.90693e-291
6.79223e-290
-8.92305e-289
1.09168e-287
-1.19626e-286
1.05669e-285
-1.54233e-284
1.34055e-283
-1.88218e-282
2.67913e-281
-2.50856e-280
1.76167e-279
-1.33555e-279
4.8726e-279
-6.90509e-278
4.39619e-278
5.01643e-277
-5.16417e-276
6.18186e-275
-7.32201e-274
6.5325e-273
-5.14247e-272
3.27894e-271
-3.48079e-270
1.20247e-269
-1.19149e-268
1.2602e-267
-1.04547e-267
1.07587e-266
7.41322e-265
-5.32476e-264
2.03241e-263
-7.5723e-263
6.17704e-262
-7.79094e-262
4.23971e-261
2.76797e-261
-2.83396e-260
8.042e-260
-1.60275e-258
9.04632e-259
7.21121e-259
2.1257e-259
6.53266e-259
-9.12815e-258
7.70805e-257
-5.05387e-256
2.38985e-255
-4.89169e-255
-3.13567e-254
1.11455e-253
-1.29586e-254
-4.71198e-254
-2.7998e-254
-3.2197e-254
-5.89984e-254
6.67005e-254
4.68868e-254
1.40298e-254
-2.7978e-254
-6.58639e-254
-1.49681e-254
4.96547e-254
3.93333e-254
1.40885e-254
-5.49249e-255
-1.16858e-254
-4.83404e-255
-4.40387e-256
1.87988e-255
9.38384e-256
2.96612e-257
-1.01621e-256
-5.77072e-257
-3.64584e-258
2.62597e-259
-1.23565e-258
-2.37711e-258
-1.25664e-258
-2.02355e-257
1.02772e-257
8.24261e-258
2.50657e-258
-5.21157e-259
4.54887e-259
-4.00358e-259
3.8767e-262
7.05673e-260
-5.7404e-260
1.07969e-259
6.79367e-260
1.96476e-260
-7.15392e-261
-8.48121e-261
-3.10861e-261
5.47774e-262
2.8559e-262
-3.93444e-283
9.21632e-279
-8.66465e-278
1.36937e-276
-2.21263e-275
3.51118e-274
-5.47526e-273
8.3872e-272
-1.26165e-270
1.05861e-269
-1.48156e-268
2.10802e-267
-1.38115e-266
1.78814e-265
-2.39689e-264
3.13978e-263
-1.88504e-262
9.28265e-263
6.3829e-263
-1.23738e-262
1.63552e-261
-1.90629e-260
2.17064e-259
-2.41146e-258
2.61124e-257
-2.75318e-256
2.82314e-255
-2.81171e-254
1.46428e-253
-1.29494e-252
1.15685e-251
-9.88457e-251
-1.04762e-250
1.1749e-249
-8.78274e-249
6.77597e-248
-5.19813e-247
6.96931e-247
-6.79168e-246
-2.27338e-246
-5.53852e-245
1.74846e-244
1.59549e-243
-1.24478e-242
2.41834e-242
-5.53857e-242
2.06612e-241
-6.2197e-241
3.68359e-242
3.66612e-241
-1.22721e-241
-1.75769e-240
3.12813e-239
-4.98334e-239
-8.25368e-240
1.50008e-240
-1.89343e-239
2.75151e-239
6.49392e-239
8.13259e-239
-7.43086e-239
-9.09277e-239
-9.87101e-240
1.80279e-239
2.73737e-239
9.58286e-240
1.59723e-240
-5.77014e-240
-4.23422e-240
-6.86072e-241
7.68698e-241
7.07753e-241
-5.14284e-242
9.90493e-242
6.70862e-242
2.47086e-242
1.93503e-243
-4.22896e-243
-3.05911e-243
-9.0777e-244
-1.34143e-244
2.53495e-243
-1.84669e-242
5.80828e-243
3.81627e-243
5.01916e-243
2.69581e-243
7.8806e-244
-1.19384e-243
-5.12385e-244
-2.56493e-245
6.0994e-245
3.99337e-245
-7.73542e-247
-8.0876e-246
-3.73966e-246
-5.31208e-247
2.89634e-247
-1.97598e-247
2.04346e-247
1.04908e-264
-8.2921e-264
9.93952e-263
-5.33417e-262
-8.88271e-261
3.44723e-259
-5.42792e-258
7.50849e-257
-9.05664e-256
1.29901e-254
-1.41901e-253
1.75241e-252
-2.11865e-251
2.11478e-250
-2.26674e-249
2.40951e-248
-2.41217e-247
1.84423e-246
-8.75902e-246
5.89681e-245
-5.04553e-244
3.97748e-243
-2.53266e-242
-9.89262e-242
5.07738e-242
6.97118e-241
-4.36066e-241
-1.40905e-239
2.67796e-238
-2.16272e-237
1.54494e-236
-1.02732e-235
7.93528e-235
-2.50108e-234
1.60243e-233
1.08105e-233
-3.6874e-232
2.5144e-231
-8.0889e-231
2.39083e-230
-8.59975e-230
3.10542e-229
-1.54298e-229
-2.81795e-228
5.83434e-228
-9.65886e-228
3.34461e-227
-3.30951e-226
6.21992e-225
2.39519e-225
-3.26669e-224
2.10768e-224
2.22629e-224
-1.15353e-224
1.02021e-225
-3.4985e-225
-2.91689e-224
-1.63865e-224
1.90807e-224
3.68731e-224
1.84135e-224
-1.25632e-224
-1.55898e-224
-9.37959e-225
-2.85555e-225
2.40036e-225
3.37179e-225
1.87524e-225
-6.28736e-227
-4.83145e-226
-1.43325e-226
-1.45658e-226
-2.15098e-226
-8.98192e-227
2.12783e-227
9.14082e-227
5.00177e-227
-1.34656e-226
-7.0422e-228
4.81759e-227
3.77327e-227
1.41092e-227
-1.12139e-227
-7.26644e-228
-5.04301e-228
-2.40181e-228
1.98689e-228
1.28272e-228
2.91271e-229
-5.7686e-230
-6.55311e-230
-5.07494e-230
3.59065e-231
1.10967e-230
5.33422e-231
-7.16044e-232
-2.08866e-231
-1.03417e-231
2.12337e-232
2.54899e-232
-1.09086e-249
7.5515e-249
-1.1806e-247
1.87328e-246
-2.19963e-245
5.50815e-246
1.46035e-243
-2.23232e-242
3.22743e-241
-4.80797e-240
4.43908e-239
-5.91479e-238
7.91475e-237
-1.03613e-235
1.05748e-234
-1.30908e-233
1.21441e-232
-1.43077e-231
8.20978e-231
-3.40505e-230
3.50987e-229
-3.81783e-228
4.02417e-227
2.57441e-226
-1.16271e-226
-4.59709e-226
3.25681e-225
-2.93134e-224
-5.81738e-224
6.26813e-223
-5.02034e-222
3.94139e-221
-7.64527e-220
2.39749e-219
-8.43851e-219
5.0988e-218
3.08136e-217
-1.90164e-216
3.95561e-216
-2.50279e-215
1.0507e-214
-4.3691e-214
7.1022e-214
-1.98119e-213
-1.14127e-213
-6.52538e-214
-8.86075e-212
1.16643e-210
-5.05256e-210
-2.26078e-210
7.17421e-210
-1.87494e-209
9.54048e-210
4.74025e-210
-1.33422e-209
-1.40702e-209
1.29657e-209
2.55973e-209
1.60634e-209
-4.65573e-210
-1.14069e-209
-9.35338e-210
-4.14805e-210
1.92691e-210
2.48492e-210
1.80327e-210
4.62555e-211
-3.35998e-211
-1.45834e-211
-1.63199e-211
-8.62574e-212
-9.8078e-212
1.33794e-214
3.04537e-212
2.04727e-212
-7.83864e-212
-7.64629e-212
7.40761e-212
5.83726e-212
1.60784e-212
8.27614e-213
-8.66601e-213
-7.35157e-213
-5.20062e-213
1.17645e-213
1.53962e-213
1.92462e-214
3.82963e-214
-1.32561e-215
-4.04002e-215
-2.96491e-215
1.13226e-215
1.23997e-215
1.14966e-216
-1.85363e-216
-1.25001e-216
-3.26116e-217
3.25861e-217
2.09437e-217
1.21333e-218
-1.30485e-234
1.26952e-233
-1.33211e-232
1.61794e-231
-2.44913e-230
2.99258e-229
-3.37068e-228
1.92911e-227
-5.08535e-227
-5.10885e-225
1.12025e-223
-1.0006e-222
5.97609e-222
-6.07954e-221
9.6243e-220
-8.78663e-219
6.26494e-218
-6.39663e-217
1.23275e-215
-8.09865e-215
7.08245e-214
-6.25212e-213
7.54359e-212
-6.2727e-211
6.03568e-210
-3.69073e-209
1.3818e-208
-6.94987e-209
8.98109e-207
-5.16797e-207
-3.02544e-206
1.05717e-205
-7.24452e-205
-1.43808e-204
2.24944e-203
-1.3312e-202
2.91286e-202
-1.3817e-201
5.87518e-201
-1.07742e-200
2.71466e-200
-2.13201e-199
3.30697e-199
-1.27282e-198
1.16743e-198
-1.9311e-197
1.26271e-196
-5.57303e-196
1.30038e-195
3.69007e-195
-1.39572e-194
2.18533e-195
1.01199e-194
1.41778e-194
-5.50812e-195
-1.07578e-194
-6.4741e-195
-1.78919e-196
3.06395e-195
2.54946e-195
3.4604e-195
1.10427e-195
-1.73168e-195
-1.95736e-195
-1.0638e-195
1.06644e-195
-6.78895e-196
-3.74449e-196
6.94055e-197
1.99681e-196
1.36452e-196
-8.27087e-197
-2.32916e-197
5.65134e-197
9.46319e-197
-1.2353e-196
1.34859e-196
-2.8157e-198
-3.9419e-197
-1.85762e-197
3.27555e-197
-6.52196e-198
-1.06879e-197
-4.2231e-198
-7.39694e-199
1.5178e-198
9.31645e-199
3.32136e-199
1.19203e-199
-4.084e-200
-1.89163e-200
-3.97602e-201
3.08193e-201
4.51048e-201
1.70828e-201
-6.85856e-202
-7.20355e-202
-1.96155e-202
2.96499e-203
3.03831e-203
-6.42808e-220
7.46503e-219
-9.29313e-218
1.40552e-216
-1.54811e-215
2.24492e-214
-3.24866e-213
4.60918e-212
-6.41203e-211
8.74246e-210
-1.16773e-208
1.52727e-207
2.64229e-207
-4.63594e-206
-7.03526e-205
9.1474e-204
-1.58152e-203
1.1396e-201
-1.32473e-200
3.04499e-200
-2.61389e-199
-2.67811e-198
2.94078e-197
-8.79123e-198
-4.44161e-195
4.22322e-194
-2.39951e-193
1.97831e-192
-1.61882e-191
8.89041e-192
-2.42955e-191
2.15283e-190
-1.45604e-189
-2.64565e-189
1.83896e-188
-9.49224e-188
4.50128e-187
-1.16634e-186
1.55302e-186
6.36828e-187
2.16494e-185
-1.67547e-184
3.26871e-184
-5.61998e-184
-3.84629e-183
3.60291e-182
-7.49835e-182
4.2635e-181
1.17689e-181
-4.09793e-180
8.94252e-180
3.2881e-180
-3.31763e-180
-5.18195e-180
-4.67105e-180
3.64993e-180
3.56861e-180
1.43111e-180
-5.2675e-180
-2.79865e-180
3.67488e-180
-1.26551e-180
-3.088e-180
-2.64156e-181
2.55e-180
2.47602e-180
1.08544e-180
-1.98272e-181
-6.58017e-181
-4.2554e-181
-1.24179e-181
9.18386e-182
8.52645e-182
3.28899e-182
-2.79946e-182
1.07992e-181
-1.06712e-181
-1.06052e-181
7.07896e-182
4.82585e-182
-1.42461e-182
1.58395e-182
-8.8995e-183
6.05005e-184
9.67146e-184
3.34205e-184
3.20452e-184
-1.57183e-184
-1.59795e-184
2.57659e-185
1.78916e-185
-1.65487e-185
-7.38695e-186
-1.99167e-186
2.41194e-187
2.70295e-187
3.16788e-188
-1.80748e-188
-1.66255e-188
-9.19107e-189
4.65708e-205
-5.26866e-204
8.05461e-203
-1.26804e-201
1.62071e-200
-3.03041e-199
4.34308e-198
-6.03615e-197
1.09591e-195
-1.09092e-194
1.92687e-193
-2.49858e-192
1.73553e-191
-2.84625e-190
2.59367e-189
-2.04042e-188
2.2749e-187
-1.58005e-186
2.53606e-185
-1.94131e-184
1.21452e-183
-1.17579e-182
6.16499e-182
-9.89746e-181
6.13576e-180
-2.9068e-179
2.37594e-178
-8.07384e-178
1.32944e-176
-5.90062e-176
1.56281e-175
3.74278e-175
-2.72819e-174
1.61973e-173
5.29506e-174
-3.86865e-173
1.24521e-172
-2.9181e-172
-9.61753e-172
1.78858e-170
-7.44298e-170
6.3185e-170
-1.76167e-169
2.38426e-169
3.01974e-168
-1.01252e-167
2.1253e-167
-2.71009e-167
-3.78546e-166
3.42213e-165
-4.61968e-165
-4.02393e-165
1.21579e-166
3.51536e-165
6.74913e-165
-4.41049e-166
-8.22665e-165
-3.07627e-165
1.26983e-165
4.63207e-165
4.20364e-165
5.24234e-166
-1.65075e-165
-1.73585e-165
-8.13909e-166
-3.30553e-168
2.94973e-166
2.32049e-166
8.12148e-167
-2.61021e-167
8.05338e-167
-6.35266e-166
6.94339e-166
-2.61116e-166
3.59029e-166
4.15156e-167
-7.1265e-167
-1.90843e-166
-1.0522e-166
-1.02263e-167
4.24483e-167
2.72561e-167
-3.03563e-168
-3.09499e-168
-2.81124e-168
-6.42329e-169
5.94726e-169
4.65868e-169
1.34428e-169
-2.6872e-170
-3.68426e-170
-9.26683e-171
2.35176e-171
1.82763e-171
3.2182e-172
-2.08733e-172
-1.53379e-172
5.26149e-174
-1.80553e-173
-5.26759e-174
9.02046e-191
-9.45475e-190
-1.36909e-188
5.6822e-187
-1.59117e-185
3.00544e-184
-4.2263e-183
6.15672e-182
-8.76896e-181
1.18307e-179
-1.39106e-178
1.56522e-177
-1.81158e-176
1.93766e-175
-2.10758e-174
2.23143e-173
-2.13984e-172
1.97477e-171
-1.75874e-170
1.64931e-169
-1.49962e-168
1.1777e-167
-9.83043e-167
6.91282e-166
-5.24505e-165
3.79777e-164
-2.56835e-163
1.66566e-162
-9.94233e-162
5.65016e-161
-3.11965e-160
1.54704e-159
-7.55168e-159
2.19406e-158
-8.04038e-158
2.28027e-157
-6.55707e-157
1.08431e-156
1.92103e-156
-1.56746e-155
6.50184e-155
-2.04776e-154
4.69715e-154
1.51284e-154
-4.36775e-153
2.36881e-152
-7.80491e-152
6.62734e-152
6.32995e-151
-2.48419e-150
8.86007e-151
5.17653e-150
3.345e-151
-3.72858e-150
-4.0123e-150
-1.93933e-150
1.85548e-150
3.29516e-150
2.19937e-150
9.10877e-151
-4.43534e-151
-1.73096e-150
-5.17963e-151
-1.63982e-150
-6.95926e-151
8.54903e-152
1.3227e-150
2.74509e-150
8.61861e-152
-2.0832e-150
-1.50798e-150
6.76798e-152
1.02009e-150
7.1828e-151
-2.51067e-152
-3.4583e-151
-2.44264e-151
-5.90849e-152
5.8664e-152
5.38603e-152
1.54012e-152
-5.70198e-153
-7.07138e-153
-2.51707e-153
1.35033e-154
6.48003e-154
2.79646e-154
7.59446e-157
-4.70943e-155
-2.13461e-155
-7.13251e-156
8.19367e-156
3.12154e-156
-9.55913e-158
-9.50929e-157
-4.20882e-157
-1.99023e-158
9.62352e-158
4.21803e-158
-3.80439e-159
-1.294e-174
3.07583e-174
-3.83762e-173
5.54971e-172
-7.82425e-171
3.60167e-170
-4.41014e-169
5.84918e-168
-7.56421e-167
-1.39761e-165
1.88972e-164
-2.10874e-163
2.50879e-162
-3.19041e-161
3.64812e-160
-3.71952e-159
3.64916e-158
-3.4499e-157
3.13123e-156
-3.10206e-155
3.00277e-154
-2.46705e-153
2.22651e-152
-1.67836e-151
1.41346e-150
-1.15838e-149
7.58345e-149
-5.67953e-148
3.26895e-147
-1.64347e-146
1.06447e-145
-4.20325e-145
2.38934e-144
-7.32837e-144
3.51921e-143
-5.77888e-143
2.01592e-142
-4.32881e-142
-1.15569e-141
8.06386e-141
-1.83235e-140
5.96858e-140
-2.01422e-139
-9.42858e-140
7.15318e-139
-3.66434e-138
1.44023e-137
7.34994e-138
-1.62057e-136
4.03566e-136
1.8392e-136
-1.14203e-135
-2.64249e-136
2.21818e-136
9.78677e-137
8.35631e-136
7.10772e-136
1.44858e-136
2.27786e-136
-3.51467e-136
-6.86201e-136
-2.98107e-136
-1.52976e-135
3.80598e-136
7.38701e-136
1.31751e-135
6.88237e-136
-8.06924e-136
-1.29954e-135
-1.2615e-136
4.4222e-136
4.58024e-136
9.89139e-137
-1.57858e-136
-1.44583e-136
-5.05067e-137
1.83972e-137
2.52776e-137
1.07158e-137
2.57829e-139
-2.78835e-138
-1.58327e-138
-1.58339e-139
2.0276e-139
1.34164e-139
2.95407e-140
-1.36858e-140
-1.15148e-140
-2.82626e-141
2.99397e-143
4.34883e-141
-1.80191e-142
-1.56169e-141
-8.46988e-142
-1.59434e-142
5.1144e-143
4.11632e-143
8.52942e-144
-2.30181e-144
-1.54039e-144
-1.2282e-159
1.28159e-158
7.85124e-158
-1.2779e-156
-1.62412e-155
2.41614e-154
-3.20086e-153
4.16452e-152
-5.30172e-151
-3.91542e-152
4.4025e-150
-5.05414e-149
5.90171e-148
-6.71991e-147
7.46227e-146
-8.07566e-145
8.51019e-144
-8.72537e-143
8.69577e-142
-8.4154e-141
7.89958e-140
-7.18403e-139
6.32091e-138
-5.37258e-137
4.40387e-136
-3.47445e-135
2.63239e-134
-1.91012e-133
1.32315e-132
-8.71489e-132
5.42985e-131
-2.34693e-130
1.26387e-129
-6.33219e-129
2.15439e-128
-5.95232e-128
8.58155e-128
-2.23149e-128
-1.28139e-126
7.73385e-126
-1.18982e-125
3.11631e-125
-7.9766e-125
-6.33209e-125
1.65776e-124
-1.64223e-123
6.79973e-123
-6.31416e-123
8.57574e-122
-1.40099e-121
-1.99987e-121
4.23882e-121
3.6824e-121
-8.30521e-122
-5.28102e-121
-5.27104e-121
-5.20777e-122
-7.36199e-121
9.1046e-121
9.04987e-121
1.74128e-120
-4.50865e-121
-1.32375e-120
-1.80434e-120
-6.14323e-121
6.76255e-121
1.20428e-120
6.4466e-121
-1.74714e-121
-3.16408e-121
-1.21299e-121
3.51254e-122
6.56141e-122
3.08265e-122
-1.53153e-123
-1.07279e-122
-6.46721e-123
-1.10587e-123
9.84118e-124
8.30654e-124
2.34858e-124
-5.59651e-125
-7.83808e-125
-2.82162e-125
1.41829e-126
5.96709e-126
2.50886e-126
8.01294e-128
-3.34627e-127
-5.36097e-127
3.33283e-127
3.53926e-125
-3.47889e-125
-2.53548e-125
1.42456e-125
9.52828e-126
3.98616e-126
-1.76885e-126
-1.17261e-126
-1.16493e-127
-7.16287e-144
5.93067e-143
-5.62816e-142
7.62447e-141
-8.77962e-140
1.06904e-138
-1.27904e-137
1.3498e-136
-1.49524e-135
1.6046e-134
-1.89638e-133
1.64921e-132
-1.17835e-131
1.26733e-130
-6.16755e-130
6.07388e-129
-3.90687e-128
3.76153e-127
-3.63388e-126
2.71679e-125
-1.81236e-124
1.02121e-123
-8.43288e-123
6.90308e-122
-2.45779e-121
-5.05516e-121
1.38288e-119
-9.83324e-119
6.47617e-118
-3.47611e-117
1.87246e-116
-9.37298e-116
3.79504e-115
-1.50302e-114
4.98961e-114
-1.89823e-113
3.11262e-113
1.37539e-112
-1.35492e-111
6.76168e-111
-2.31091e-110
5.00735e-110
2.03542e-111
-1.5888e-109
1.02631e-108
-2.67707e-108
1.76319e-108
1.19237e-107
-3.20255e-107
2.47951e-107
1.13558e-106
-9.1929e-107
-2.96024e-106
-2.5088e-107
4.83137e-106
4.52771e-106
-3.88387e-106
-1.14856e-105
-8.43626e-106
3.71126e-106
1.36749e-105
1.29668e-105
3.81203e-106
-5.16552e-106
-7.29118e-106
-5.92862e-106
-7.07718e-107
1.57327e-106
1.0531e-106
-4.07298e-108
9.92946e-107
2.01757e-106
-3.28303e-106
-2.71575e-106
3.44333e-107
2.36411e-106
1.07925e-106
-5.9679e-107
-5.60114e-107
-3.57938e-107
1.58149e-107
3.83166e-107
1.26291e-107
-1.22182e-107
-1.16162e-107
-1.72851e-108
1.6595e-108
2.13803e-108
1.21182e-108
-4.571e-109
-4.19393e-109
-1.50515e-109
2.59618e-110
3.46858e-110
1.46792e-110
-2.23521e-113
-4.51635e-111
-1.73768e-111
5.61306e-113
3.39323e-112
3.06105e-129
-3.02058e-128
2.6773e-127
-3.53453e-126
1.9752e-125
-2.40134e-124
3.06374e-123
-3.81276e-122
4.63844e-121
-1.04865e-119
1.24472e-118
-7.41879e-118
7.82505e-117
-8.43782e-116
5.29468e-115
-5.21422e-114
1.8544e-113
-1.62643e-112
1.53352e-111
-1.39052e-110
1.22064e-109
-1.03561e-108
8.47891e-108
-6.68752e-107
5.07134e-106
-2.12963e-105
8.85643e-105
8.04769e-105
-6.57476e-104
3.69712e-103
-2.0678e-102
1.0641e-101
-4.9885e-101
2.06572e-100
9.16887e-100
2.28264e-99
8.22657e-100
-4.08145e-98
2.95971e-97
-1.48875e-96
5.65732e-96
-1.03943e-95
-2.42615e-96
3.85684e-95
-1.45875e-94
2.1956e-94
1.07157e-94
-3.91908e-93
1.48743e-92
-7.70477e-94
-7.28566e-92
3.20031e-92
1.21207e-91
4.26613e-92
-1.10286e-91
-1.70514e-91
-3.72652e-92
1.93395e-91
3.18952e-91
2.32041e-91
1.09515e-92
-1.75466e-91
-2.23418e-91
-1.47856e-91
-7.52065e-92
1.01669e-91
-4.47703e-92
2.00998e-92
4.68257e-93
2.25478e-91
-2.42673e-91
-3.45531e-91
8.26828e-92
1.73188e-91
1.09586e-91
-3.02801e-92
-3.31495e-92
-5.15893e-94
1.23741e-92
3.574e-92
1.78484e-92
-1.42914e-92
-1.89896e-92
-5.66103e-93
-1.9891e-94
2.9433e-93
1.99663e-93
-1.81515e-94
-5.47863e-94
-2.92581e-94
-1.86709e-95
4.78172e-95
2.62511e-95
5.90937e-96
-3.53032e-96
-2.33238e-96
-4.17505e-97
1.75757e-97
1.2572e-97
1.01874e-98
-3.55417e-114
3.40601e-113
-5.651e-112
6.1296e-111
-6.92424e-110
8.74955e-109
-7.8982e-108
9.42432e-107
-1.11996e-105
1.50832e-104
-1.49809e-103
1.40749e-102
-1.02329e-101
7.97155e-101
-5.68035e-100
7.48067e-99
-7.28814e-98
5.42196e-97
-2.56388e-96
2.14622e-95
-1.8205e-94
1.13992e-93
-6.79239e-93
2.51786e-92
-1.75595e-91
1.23409e-90
-7.41135e-90
4.18489e-89
-1.97739e-88
1.25049e-87
-6.62598e-87
3.21902e-86
-1.0722e-85
3.65716e-85
-1.16015e-84
1.88805e-84
3.51978e-84
-4.23862e-83
2.10379e-82
-5.21419e-82
1.11867e-81
-3.52458e-81
-1.12069e-81
2.07782e-80
-5.29993e-80
3.49143e-80
7.22679e-80
6.77859e-79
-3.83127e-78
-4.06394e-78
1.88889e-77
1.17459e-78
-1.5076e-77
2.26448e-77
-2.70501e-77
-1.37275e-76
-1.11603e-76
1.94277e-76
4.87043e-76
2.79921e-76
-4.66739e-76
-1.09189e-75
-9.06522e-76
-1.75171e-76
1.07998e-75
1.34087e-75
5.79262e-76
-1.13841e-76
-5.86692e-76
-4.8996e-76
-8.45046e-77
2.17729e-76
-6.40083e-77
-7.70388e-77
2.0343e-78
8.148e-78
7.68846e-77
8.97614e-77
2.15993e-77
-2.53569e-77
-3.20007e-77
-1.55608e-77
-1.68394e-78
5.36353e-78
3.70216e-78
9.70975e-79
-5.22438e-79
-5.2665e-79
-1.72182e-79
2.41488e-80
4.94135e-80
1.89733e-80
5.77561e-82
-3.80905e-81
-1.70595e-81
-1.14078e-82
2.89072e-82
1.22409e-82
2.88494e-84
-1.54005e-83
-2.40994e-99
2.29906e-98
-3.22577e-97
4.26898e-96
-5.69575e-95
6.71772e-94
-7.89196e-93
8.77101e-92
-9.45649e-91
9.89331e-90
-1.04468e-88
1.075e-87
-1.12198e-86
1.04547e-85
-8.86389e-85
7.5315e-84
-6.12554e-83
5.1073e-82
-4.10989e-81
2.6069e-80
-1.54633e-79
9.14677e-79
-5.75579e-78
3.37106e-77
-7.16748e-77
3.62514e-76
-2.21248e-75
1.18141e-74
-6.4188e-74
3.12016e-73
-1.31338e-72
5.23723e-72
-2.26969e-71
7.27157e-71
-1.72075e-70
7.66513e-71
1.66591e-69
-1.19458e-68
5.79011e-68
-2.05728e-67
4.70709e-67
-4.27978e-67
-1.94919e-66
1.03258e-65
-2.15561e-65
-1.52755e-65
1.92941e-64
-5.44943e-64
2.24781e-64
2.60402e-63
-4.13583e-63
-4.9031e-63
2.03829e-63
2.95072e-62
2.06366e-62
-6.07078e-62
-1.45817e-61
-6.09189e-62
1.36208e-61
2.99751e-61
2.24132e-61
-5.40477e-62
-2.91047e-61
-3.05752e-61
-1.34444e-61
8.31277e-62
2.23511e-61
2.96647e-61
-2.09614e-61
-1.27468e-61
2.97537e-61
3.06255e-61
-7.92997e-63
-1.29601e-61
-2.41761e-61
-1.85606e-61
-6.51287e-62
3.42045e-62
4.95598e-62
2.80952e-62
5.21381e-63
-4.30878e-63
-4.63323e-63
-1.73706e-63
2.0545e-65
4.45288e-64
2.43147e-64
3.8803e-65
-3.12129e-65
-2.45662e-65
-6.1156e-66
1.51991e-66
1.8882e-66
5.73957e-67
-7.90083e-68
-1.30651e-67
-4.20011e-68
5.59235e-69
9.2277e-69
1.23168e-69
-2.69053e-85
2.42441e-84
-3.16059e-83
4.01534e-82
8.48152e-81
-1.1092e-79
1.31192e-78
-1.51992e-77
1.71809e-76
-1.8937e-75
2.03378e-74
-2.1266e-73
2.16322e-72
-2.13876e-71
2.05332e-70
-1.91221e-69
1.72551e-68
-1.50686e-67
1.27182e-66
-8.14741e-66
6.31032e-65
-4.77134e-64
3.45693e-63
-2.39878e-62
1.04561e-62
-2.91141e-62
2.26209e-61
-1.26672e-60
6.8362e-60
-3.43317e-59
1.59049e-58
-6.68292e-58
2.47382e-57
-7.58681e-57
1.59359e-56
3.38896e-57
-2.53156e-55
1.59197e-54
-6.59512e-54
1.98068e-53
-3.82593e-53
8.56231e-54
2.48618e-52
-8.74763e-52
5.26589e-52
7.15811e-51
-3.0515e-50
2.39042e-50
7.66954e-50
-3.6997e-49
1.59851e-49
4.58612e-49
1.14565e-48
-3.0816e-48
-6.87064e-48
7.1697e-49
1.77092e-47
2.85295e-47
1.51699e-47
-1.3351e-47
-1.02068e-47
-2.12808e-46
5.61254e-47
1.51997e-46
1.5275e-46
5.98845e-47
4.48458e-49
-1.68101e-46
4.51347e-46
7.17591e-47
-1.26171e-46
-2.01857e-46
-1.73255e-46
-1.00727e-46
-3.2844e-47
9.16549e-48
1.8265e-47
1.34599e-47
4.06082e-48
-1.07011e-48
-1.51513e-48
-8.66617e-49
-2.524e-49
2.47379e-50
6.55763e-50
3.09236e-50
3.13853e-51
-4.63764e-51
-3.03746e-51
-6.48325e-52
2.44604e-52
2.85286e-52
2.73688e-53
-2.61635e-53
-1.39626e-53
-1.53253e-54
2.58131e-54
4.6437e-55
-7.49584e-55
4.03388e-56
7.0521e-69
-6.15186e-68
5.01897e-67
-6.06651e-66
3.25656e-65
-3.62516e-64
4.21222e-63
-4.76093e-62
5.24762e-61
9.83717e-61