/*--------------------------------*- C++ -*----------------------------------*\
  =========                 |
  \\      /  F ield         | OpenFOAM: The Open Source CFD Toolbox
   \\    /   O peration     | Website:  https://openfoam.org
    \\  /    A nd           | Version:  13
     \\/     M anipulation  |
\*---------------------------------------------------------------------------*/
FoamFile
{
    format      ascii;
    class       volScalarField;
    location    "5.6";
    object      T;
}
// * * * * * * * * * * * * * * * * * * * * * * * * * * * * * * * * * * * * * //

dimensions      [0 0 0 1 0 0 0];

internalField   nonuniform List<scalar> 
10000
(
4.59873e-61
-2.51272e-61
2.50458e-60
-1.07986e-59
4.80444e-59
-2.01722e-58
8.02766e-58
-2.99971e-57
1.03976e-56
-3.27639e-56
9.03136e-56
-1.98051e-55
2.2474e-55
7.62822e-55
-6.76155e-54
3.07448e-53
-1.0455e-52
2.76058e-52
-5.12752e-52
2.89389e-52
2.42453e-51
-1.21199e-50
3.16357e-50
-3.87188e-50
-7.02708e-50
5.05589e-49
-1.25026e-48
7.68219e-49
5.65025e-48
-2.15644e-47
2.50834e-47
6.72879e-47
-3.24961e-46
3.66401e-46
1.13987e-45
-4.6079e-45
2.35368e-45
2.27642e-44
-5.25705e-44
-4.883e-44
3.70856e-43
-2.0586e-43
-1.84223e-42
3.04816e-42
7.41167e-42
-2.23182e-41
-2.59508e-41
1.32521e-40
8.88409e-41
-7.17021e-40
-3.86652e-40
3.68089e-39
2.54589e-39
-1.78282e-38
-2.0116e-38
7.69878e-38
1.49969e-37
-2.51064e-37
-9.47494e-37
1.82385e-37
4.61617e-36
5.18361e-36
-1.34588e-35
-4.39263e-35
-1.43797e-35
1.63558e-34
3.72652e-34
7.4215e-35
-1.35686e-33
-3.33917e-33
-2.58577e-33
6.24945e-33
2.53523e-32
4.47352e-32
3.56034e-32
-4.48349e-32
-2.32681e-31
-5.28132e-31
-8.7611e-31
-1.17491e-30
-1.31586e-30
-1.2356e-30
-9.50878e-31
-5.53748e-31
-1.68914e-31
1.02105e-31
2.19118e-31
2.06325e-31
1.2526e-31
3.81113e-32
-1.78396e-32
-3.55511e-32
-2.77756e-32
-1.19788e-32
4.07356e-35
4.7787e-33
4.24813e-33
1.91213e-33
5.24574e-35
-5.83314e-34
-8.07734e-61
4.53341e-61
-4.4617e-60
1.93605e-59
-8.66008e-59
3.66114e-58
-1.46945e-57
5.55231e-57
-1.95427e-56
6.30077e-56
-1.80575e-55
4.30571e-55
-6.85044e-55
-4.0061e-55
9.12029e-54
-4.68722e-53
1.68308e-52
-4.61883e-52
8.99588e-52
-6.55363e-52
-3.63557e-51
1.97175e-50
-5.34251e-50
6.99245e-50
1.02968e-49
-8.28575e-49
2.12333e-48
-1.48094e-48
-9.07527e-48
3.61685e-47
-4.43425e-47
-1.0726e-46
5.44609e-46
-6.44318e-46
-1.84843e-45
7.76703e-45
-4.35229e-45
-3.77207e-44
8.95781e-44
7.76425e-44
-6.23913e-43
3.68454e-43
3.07758e-42
-5.21438e-42
-1.23081e-41
3.78465e-41
4.2828e-41
-2.24e-40
-1.45951e-40
1.21062e-39
6.3859e-40
-6.21332e-39
-4.261e-39
3.00849e-38
3.39436e-38
-1.29723e-37
-2.53682e-37
4.20657e-37
1.60124e-36
-2.80754e-37
-7.76712e-36
-8.8903e-36
2.23243e-35
7.42648e-35
2.67677e-35
-2.71527e-34
-6.3238e-34
-1.5699e-34
2.22913e-33
5.63527e-33
4.65821e-33
-9.70881e-33
-4.16532e-32
-7.57556e-32
-6.58606e-32
5.75127e-32
3.5377e-31
8.24638e-31
1.38226e-30
1.86278e-30
2.09042e-30
1.96242e-30
1.50563e-30
8.68772e-31
2.53212e-31
-1.77616e-31
-3.59861e-31
-3.33833e-31
-1.99735e-31
-5.80645e-32
3.16124e-32
5.88778e-32
4.5131e-32
1.89687e-32
-5.68859e-34
-8.05327e-33
-6.97517e-33
-3.06137e-33
-1.46432e-35
9.79955e-34
5.87306e-60
-3.29704e-60
3.24439e-59
-1.40783e-58
6.29715e-58
-2.66206e-57
1.06838e-56
-4.03635e-56
1.42041e-55
-4.57807e-55
1.31126e-54
-3.12264e-54
4.94634e-54
3.04849e-54
-6.67946e-53
3.42329e-52
-1.22794e-51
3.36768e-51
-6.55478e-51
4.76139e-51
2.65497e-50
-1.43831e-49
3.89553e-49
-5.09557e-49
-7.51848e-49
6.04368e-48
-1.5484e-47
1.07927e-47
6.62022e-47
-2.63793e-46
3.23377e-46
7.82383e-46
-3.97234e-45
4.69991e-45
1.34818e-44
-5.66562e-44
3.17616e-44
2.75135e-43
-6.5352e-43
-5.66093e-43
4.55149e-42
-2.69003e-42
-2.24495e-41
3.80519e-41
8.97695e-41
-2.76162e-40
-3.12289e-40
1.63447e-39
1.06381e-39
-8.83371e-39
-4.65348e-39
4.53395e-38
3.10605e-38
-2.19552e-37
-2.47541e-37
9.46825e-37
1.85061e-36
-3.07122e-36
-1.16838e-35
2.05733e-36
5.66868e-35
6.48476e-35
-1.62988e-34
-5.41953e-34
-1.95013e-34
1.98215e-33
4.61487e-33
1.14297e-33
-1.62737e-32
-4.11289e-32
-3.39819e-32
7.09014e-32
3.04063e-31
5.52925e-31
4.80566e-31
-4.20161e-31
-2.58283e-30
-6.02001e-30
-1.00904e-29
-1.35978e-29
-1.52594e-29
-1.43251e-29
-1.09908e-29
-6.34207e-30
-1.84878e-30
1.29615e-30
2.6266e-30
2.43678e-30
1.45804e-30
4.23957e-31
-2.3066e-31
-4.29732e-31
-3.29431e-31
-1.38481e-31
4.13222e-33
5.87734e-32
5.0913e-32
2.2349e-32
1.10159e-34
-7.15195e-33
-3.38293e-59
1.91581e-59
-1.8774e-58
8.16293e-58
-3.65722e-57
1.54924e-56
-6.23325e-56
2.36248e-55
-8.34951e-55
2.70791e-54
-7.83502e-54
1.90375e-53
-3.21326e-53
-5.95338e-54
3.51299e-52
-1.88738e-51
6.89814e-51
-1.91584e-50
3.78447e-50
-2.93727e-50
-1.45418e-49
8.10827e-49
-2.22324e-48
2.96923e-48
4.07947e-48
-3.41551e-47
8.85483e-47
-6.41171e-47
-3.71526e-46
1.50255e-45
-1.87362e-45
-4.37835e-45
2.2622e-44
-2.71935e-44
-7.59025e-44
3.23308e-43
-1.86738e-43
-1.56083e-42
3.74354e-42
3.16315e-42
-2.59592e-41
1.56684e-41
1.27722e-40
-2.1833e-40
-5.09597e-40
1.57979e-39
1.7684e-39
-9.33963e-39
-6.01129e-39
5.04591e-38
2.63362e-38
-2.58978e-37
-1.76664e-37
1.25409e-36
1.41265e-36
-5.40661e-36
-1.05741e-35
1.7511e-35
6.67583e-35
-1.1437e-35
-3.23512e-34
-3.72174e-34
9.26111e-34
3.09751e-33
1.14641e-33
-1.12641e-32
-2.6409e-32
-6.95229e-33
9.21542e-32
2.34966e-31
1.98131e-31
-3.93657e-31
-1.72171e-30
-3.16262e-30
-2.82528e-30
2.14972e-30
1.42182e-29
3.34709e-29
5.63146e-29
7.60236e-29
8.53743e-29
8.01396e-29
6.14192e-29
3.53231e-29
1.01222e-29
-7.47748e-30
-1.4868e-29
-1.37226e-29
-8.16885e-30
-2.33595e-30
1.33832e-30
2.43949e-30
1.85796e-30
7.73988e-31
-3.04495e-32
-3.35585e-31
-2.88186e-31
-1.25407e-31
3.7864e-34
4.07944e-32
1.90942e-58
-1.0904e-58
1.0643e-57
-4.63634e-57
2.08034e-56
-8.82922e-56
3.56045e-55
-1.35333e-54
4.80123e-54
-1.56564e-53
4.56951e-53
-1.12904e-52
2.00115e-52
-2.56534e-53
-1.81389e-51
1.02324e-50
-3.80848e-50
1.07042e-49
-2.14359e-49
1.76108e-49
7.82989e-49
-4.49162e-48
1.24606e-47
-1.69643e-47
-2.17476e-47
1.89656e-46
-4.97277e-46
3.72808e-46
2.04898e-45
-8.40672e-45
1.0653e-44
2.4078e-44
-1.26553e-43
1.5444e-43
4.1989e-43
-1.81229e-42
1.07657e-42
8.69916e-42
-2.10627e-41
-1.73638e-41
1.45446e-40
-8.95855e-41
-7.13868e-40
1.23055e-39
2.84192e-39
-8.87806e-39
-9.83675e-39
5.24306e-38
3.33603e-38
-2.83171e-37
-1.46355e-37
1.45336e-36
9.86722e-37
-7.03828e-36
-7.91769e-36
3.03369e-35
5.93483e-35
-9.81318e-35
-3.7474e-34
6.26669e-35
1.81419e-33
2.09757e-33
-5.17276e-33
-1.73937e-32
-6.60192e-33
6.29177e-32
1.48474e-31
4.12396e-32
-5.13007e-31
-1.31897e-30
-1.13333e-30
2.14939e-30
9.58321e-30
1.7774e-29
1.62861e-29
-1.07292e-29
-7.69435e-29
-1.82968e-28
-3.09009e-28
-4.17886e-28
-4.69617e-28
-4.40784e-28
-3.37452e-28
-1.9343e-28
-5.44723e-29
4.23613e-29
8.27253e-29
7.59705e-29
4.49971e-29
1.26539e-29
-7.62187e-30
-1.36107e-29
-1.03012e-29
-4.25342e-30
2.07288e-31
1.88274e-30
1.60344e-30
6.91878e-31
-7.47389e-33
-2.28648e-31
-1.03942e-57
5.98886e-58
-5.82078e-57
2.54068e-56
-1.14179e-55
4.85532e-55
-1.96249e-54
7.48109e-54
-2.6642e-53
8.73451e-53
-2.57082e-52
6.45298e-52
-1.19428e-51
4.68761e-52
8.9448e-51
-5.3419e-50
2.02809e-49
-5.77275e-49
1.17254e-48
-1.01787e-48
-4.05515e-48
2.40046e-47
-6.74271e-47
9.3639e-47
1.11311e-46
-1.01619e-45
2.69677e-45
-2.09475e-45
-1.08972e-44
4.54125e-44
-5.85308e-44
-1.27645e-43
6.83553e-43
-8.47633e-43
-2.2405e-42
9.81018e-42
-6.00166e-42
-4.67989e-41
1.1448e-40
9.18418e-41
-7.86971e-40
4.95337e-40
3.85231e-39
-6.70147e-39
-1.52982e-38
4.81983e-38
5.27971e-38
-2.84314e-37
-1.78563e-37
1.535e-36
7.8444e-37
-7.87857e-36
-5.31868e-36
3.81582e-35
4.28491e-35
-1.64448e-34
-3.21715e-34
5.31318e-34
2.03194e-33
-3.31757e-34
-9.82769e-33
-1.14201e-32
2.79074e-32
9.4355e-32
3.67321e-32
-3.39436e-31
-8.06448e-31
-2.36169e-31
2.75764e-30
7.15281e-30
6.26673e-30
-1.13112e-29
-5.15046e-29
-9.65121e-29
-9.0774e-29
5.04895e-29
4.00764e-28
9.63948e-28
1.63486e-27
2.21518e-27
2.49135e-27
2.33816e-27
1.78789e-27
1.02105e-27
2.81904e-28
-2.31945e-28
-4.44386e-28
-4.0589e-28
-2.39086e-28
-6.59867e-29
4.19593e-29
7.33318e-29
5.51262e-29
2.25423e-29
-1.33243e-30
-1.02038e-29
-8.61345e-30
-3.68277e-30
7.11313e-32
1.23792e-30
5.45037e-57
-3.17035e-57
3.06745e-56
-1.34168e-55
6.0393e-55
-2.57325e-54
1.04254e-53
-3.98581e-53
1.42483e-52
-4.69592e-52
1.3934e-51
-3.54965e-51
6.82538e-51
-4.20776e-51
-4.20208e-50
2.68322e-49
-1.04086e-48
3.00244e-48
-6.18814e-48
5.66447e-48
2.01803e-47
-1.23668e-46
3.51975e-46
-4.98874e-46
-5.4621e-46
5.24972e-45
-1.41111e-44
1.13624e-44
5.58422e-44
-2.36663e-43
3.10495e-43
6.51761e-43
-3.56201e-42
4.49221e-42
1.15218e-41
-5.12429e-41
3.23259e-41
2.42822e-40
-6.00617e-40
-4.67604e-40
4.10898e-39
-2.64662e-39
-2.00558e-38
3.52387e-38
7.9426e-38
-2.52596e-37
-2.73204e-37
1.48818e-36
9.2097e-37
-8.03166e-36
-4.05125e-36
4.12261e-35
2.76433e-35
-1.99705e-34
-2.23725e-34
8.60604e-34
1.68306e-33
-2.77761e-33
-1.06348e-32
1.69702e-33
5.13925e-32
6.00159e-32
-1.4534e-31
-4.94111e-31
-1.97256e-31
1.76755e-30
4.22885e-30
1.30425e-30
-1.43048e-29
-3.74484e-29
-3.3469e-29
5.73305e-29
2.67105e-28
5.05984e-28
4.88789e-28
-2.21893e-28
-2.00716e-27
-4.89062e-27
-8.33352e-27
-1.13159e-26
-1.27377e-26
-1.19531e-26
-9.12794e-27
-5.19161e-27
-1.40144e-27
1.22654e-27
2.30317e-27
2.09137e-27
1.22453e-27
3.30957e-28
-2.2311e-28
-3.81276e-28
-2.84546e-28
-1.15135e-28
8.1196e-30
5.33844e-29
4.46433e-29
1.89e-29
-5.40177e-31
-6.46965e-30
-2.74613e-56
1.61389e-56
-1.55386e-55
6.8115e-55
-3.07124e-54
1.31131e-53
-5.32557e-53
2.04209e-52
-7.32768e-52
2.42762e-51
-7.26019e-51
1.87551e-50
-3.73166e-50
3.01994e-50
1.8697e-49
-1.29344e-48
5.13665e-48
-1.50274e-47
3.1443e-47
-3.0299e-47
-9.6216e-47
6.12799e-46
-1.76869e-45
2.56018e-45
2.56028e-45
-2.60909e-44
7.1097e-44
-5.93855e-44
-2.75084e-43
1.18735e-42
-1.58721e-42
-3.19753e-42
1.78703e-41
-2.29446e-41
-5.69722e-41
2.57755e-40
-1.67917e-40
-1.21257e-39
3.03572e-39
2.28574e-39
-2.06606e-38
1.36406e-38
1.00524e-37
-1.78571e-37
-3.96873e-37
1.2754e-36
1.35991e-36
-7.5041e-36
-4.56625e-36
4.04839e-35
2.01121e-35
-2.07822e-34
-1.38225e-34
1.00697e-33
1.12463e-33
-4.33964e-33
-8.48044e-33
1.39938e-32
5.36209e-32
-8.37616e-33
-2.58928e-31
-3.03837e-31
7.29252e-31
2.49301e-30
1.02039e-30
-8.86679e-30
-2.13671e-29
-6.93347e-30
7.14647e-29
1.88914e-28
1.72325e-28
-2.79216e-28
-1.33397e-27
-2.55633e-27
-2.5381e-27
8.92834e-28
9.63944e-27
2.38378e-26
4.08339e-26
5.55801e-26
6.26234e-26
5.8759e-26
4.48052e-26
2.53669e-26
6.6723e-27
-6.25231e-27
-1.14935e-26
-1.03705e-26
-6.03215e-27
-1.59221e-27
1.14373e-27
1.9092e-27
1.41374e-27
5.65452e-28
-4.70336e-29
-2.69093e-28
-2.22797e-28
-9.33173e-29
3.61441e-30
3.25745e-29
1.32558e-55
-7.87914e-56
7.54517e-55
-3.3154e-54
1.49755e-53
-6.4079e-53
2.60895e-52
-1.00343e-51
3.61447e-51
-1.20366e-50
3.62745e-50
-9.4958e-50
1.94861e-49
-1.90462e-49
-7.81815e-49
5.96618e-48
-2.43124e-47
7.21999e-47
-1.53454e-46
1.55453e-46
4.37995e-46
-2.9132e-45
8.53511e-45
-1.26272e-44
-1.14121e-44
1.24436e-43
-3.44106e-43
2.98431e-43
1.29917e-42
-5.72131e-42
7.80137e-42
1.50304e-41
-8.61112e-41
1.12701e-40
2.7017e-40
-1.24564e-39
8.39516e-40
5.81345e-39
-1.47487e-38
-1.06946e-38
9.9813e-38
-6.76806e-38
-4.83938e-37
8.70183e-37
1.90393e-36
-6.19073e-36
-6.49484e-36
3.63718e-35
2.17043e-35
-1.96144e-34
-9.57105e-35
1.00705e-33
6.63267e-34
-4.88122e-33
-5.42996e-33
2.10398e-32
4.10621e-32
-6.78008e-32
-2.5987e-31
3.98392e-32
1.25413e-30
1.47849e-30
-3.51776e-30
-1.20923e-29
-5.07326e-30
4.27558e-29
1.03801e-28
3.54081e-29
-3.43091e-28
-9.16277e-28
-8.53577e-28
1.30324e-27
6.40136e-27
1.24192e-26
1.26835e-26
-3.16299e-27
-4.42489e-26
-1.11321e-25
-1.91837e-25
-2.61817e-25
-2.95312e-25
-2.77051e-25
-2.1091e-25
-1.18792e-25
-3.03142e-26
3.06581e-26
5.51003e-26
4.93725e-26
2.85098e-26
7.32474e-27
-5.64063e-27
-9.18667e-27
-6.7453e-27
-2.66364e-27
2.59242e-28
1.304e-27
1.0682e-27
4.42212e-28
-2.20792e-29
-1.57665e-28
-6.10842e-55
3.67724e-55
-3.50008e-54
1.542e-53
-6.97853e-53
2.99296e-52
-1.22179e-51
4.71394e-51
-1.70467e-50
5.70634e-50
-1.73274e-49
4.59386e-49
-9.69642e-49
1.09174e-48
3.03733e-48
-2.62405e-47
1.10027e-46
-3.32018e-46
7.17298e-46
-7.63131e-46
-1.89558e-45
1.32466e-44
-3.94417e-44
5.96958e-44
4.80864e-44
-5.67835e-43
1.59548e-42
-1.43841e-42
-5.86377e-42
2.64038e-41
-3.67754e-41
-6.74673e-41
3.97445e-40
-5.31023e-40
-1.22484e-39
5.76798e-39
-4.03034e-39
-2.66829e-38
6.86991e-38
4.7718e-38
-4.62065e-37
3.22543e-37
2.23151e-36
-4.06758e-36
-8.74411e-36
2.88138e-35
2.96717e-35
-1.69019e-34
-9.85762e-35
9.11094e-34
4.3516e-34
-4.67876e-33
-3.04496e-33
2.26889e-32
2.51113e-32
-9.78326e-32
-1.90552e-31
3.15146e-31
1.20747e-30
-1.82338e-31
-5.82493e-30
-6.89705e-30
1.62732e-29
5.62448e-29
2.41797e-29
-1.9768e-28
-4.83614e-28
-1.73289e-28
1.57877e-27
4.2622e-27
4.05764e-27
-5.81157e-27
-2.94395e-26
-5.78743e-26
-6.08543e-26
8.91282e-27
1.93384e-25
4.96466e-25
8.61442e-25
1.17929e-24
1.33178e-24
1.24923e-24
9.49222e-25
5.31486e-25
1.30836e-25
-1.44257e-25
-2.5309e-25
-2.25056e-25
-1.28905e-25
-3.20997e-26
2.66981e-26
4.23671e-26
3.08223e-26
1.19993e-26
-1.35948e-27
-6.05953e-27
-4.90727e-27
-2.0056e-27
1.25104e-28
7.31727e-28
2.67513e-54
-1.6341e-54
1.54458e-53
-6.82488e-53
3.09523e-52
-1.33083e-51
5.44808e-51
-2.10898e-50
7.65762e-50
-2.57695e-49
7.88395e-49
-2.11604e-48
4.58414e-48
-5.76999e-48
-1.0764e-47
1.0957e-46
-4.74326e-46
1.45621e-45
-3.20049e-45
3.57372e-45
7.75708e-45
-5.74022e-44
1.73947e-43
-2.69657e-43
-1.89986e-43
2.47035e-42
-7.06341e-42
6.63034e-42
2.51948e-41
-1.16318e-40
1.65762e-40
2.87996e-40
-1.75125e-39
2.39304e-39
5.28859e-39
-2.55093e-38
1.85291e-38
1.16846e-37
-3.05858e-37
-2.0209e-37
2.04317e-36
-1.47248e-36
-9.82355e-36
1.8185e-35
3.83136e-35
-1.28207e-34
-1.2919e-34
7.50734e-34
4.26065e-34
-4.04503e-33
-1.8825e-33
2.07787e-32
1.33251e-32
-1.00826e-31
-1.10862e-31
4.35009e-31
8.44834e-31
-1.4013e-30
-5.36253e-30
8.01909e-31
2.5866e-29
3.07489e-29
-7.19838e-29
-2.50115e-28
-1.10131e-28
8.73735e-28
2.15448e-27
8.10419e-28
-6.94238e-27
-1.89584e-26
-1.84587e-26
2.46671e-26
1.29357e-25
2.57948e-25
2.79561e-25
-1.19128e-26
-8.00661e-25
-2.1061e-24
-3.68378e-24
-5.0608e-24
-5.72316e-24
-5.36747e-24
-4.06969e-24
-2.26313e-24
-5.33321e-25
6.49488e-25
1.11033e-24
9.79018e-25
5.55639e-25
1.33373e-25
-1.20934e-25
-1.86692e-25
-1.34451e-25
-5.15109e-26
6.77567e-27
2.6921e-26
2.15334e-26
8.67647e-27
-6.62466e-28
-3.24651e-27
-1.10694e-53
6.87967e-54
-6.44944e-53
2.85947e-52
-1.29993e-51
5.60488e-51
-2.30163e-50
8.94167e-50
-3.26067e-49
1.10331e-48
-3.4012e-48
9.23931e-48
-2.05087e-47
2.82797e-47
3.36459e-47
-4.31996e-46
1.93886e-45
-6.06497e-45
1.35744e-44
-1.59058e-44
-2.97982e-44
2.3598e-43
-7.29085e-43
1.15942e-42
6.95416e-43
-1.02008e-41
2.97385e-41
-2.91259e-41
-1.02552e-40
4.87154e-40
-7.11825e-40
-1.16295e-39
7.33697e-39
-1.02776e-38
-2.16443e-38
1.07329e-37
-8.13141e-38
-4.8612e-37
1.29675e-36
8.07421e-37
-8.59625e-36
6.41912e-36
4.11195e-35
-7.74842e-35
-1.59487e-34
5.43377e-34
5.33627e-34
-3.17557e-33
-1.74349e-33
1.71023e-32
7.70788e-33
-8.78871e-32
-5.53316e-32
4.2682e-31
4.65342e-31
-1.84313e-30
-3.56495e-30
5.94042e-30
2.26798e-29
-3.38391e-30
-1.09421e-28
-1.30523e-28
3.03415e-28
1.05955e-27
4.77569e-28
-3.67877e-27
-9.14508e-27
-3.60928e-27
2.9067e-26
8.03516e-26
8.00833e-26
-9.9196e-26
-5.41061e-25
-1.09575e-24
-1.22568e-24
-7.68569e-26
3.12007e-24
8.45671e-24
1.49329e-23
2.05998e-23
2.33338e-23
2.1879e-23
1.65474e-23
9.12792e-24
2.03701e-24
-2.78844e-24
-4.63486e-24
-4.04808e-24
-2.27358e-24
-5.22201e-25
5.22462e-25
7.83146e-25
5.57694e-25
2.09802e-25
-3.20335e-26
-1.1394e-25
-8.99153e-26
-3.56579e-26
3.28869e-27
1.37206e-26
4.29355e-53
-2.7259e-53
2.52973e-52
-1.1262e-51
5.13407e-51
-2.22083e-50
9.15193e-50
-3.56964e-49
1.30781e-48
-4.45099e-48
1.38291e-47
-3.80201e-47
8.6367e-47
-1.28634e-46
-8.58482e-47
1.59667e-45
-7.46994e-45
2.38536e-44
-5.44412e-44
6.697e-44
1.06364e-43
-9.1499e-43
2.88902e-42
-4.72228e-42
-2.3128e-42
3.97545e-41
-1.18471e-40
1.21409e-40
3.92936e-40
-1.92972e-39
2.89919e-39
4.41163e-39
-2.90792e-38
4.18833e-38
8.34469e-38
-4.2753e-37
3.39299e-37
1.91121e-36
-5.21157e-36
-3.01801e-36
3.42469e-35
-2.66203e-35
-1.62835e-34
3.13303e-34
6.27344e-34
-2.18386e-33
-2.07873e-33
1.27343e-32
6.70884e-33
-6.85476e-32
-2.96634e-32
3.52451e-31
2.16735e-31
-1.71358e-30
-1.84761e-30
7.40927e-30
1.42495e-29
-2.391e-29
-9.09315e-29
1.36809e-29
4.39032e-28
5.25074e-28
-1.21349e-27
-4.25694e-27
-1.96243e-27
1.46906e-26
3.68238e-26
1.52422e-26
-1.15361e-25
-3.2309e-25
-3.29982e-25
3.75734e-25
2.14453e-24
4.4175e-24
5.10831e-24
8.6955e-25
-1.13421e-23
-3.19356e-23
-5.70475e-23
-7.90863e-23
-8.97557e-23
-8.4139e-23
-6.34457e-23
-3.46589e-23
-7.2077e-24
1.13682e-23
1.83228e-23
1.58309e-23
8.78404e-24
1.91078e-24
-2.14388e-24
-3.11308e-24
-2.18907e-24
-8.063e-25
1.43248e-25
4.57381e-25
3.55615e-25
1.38506e-25
-1.53107e-26
-5.4992e-26
-1.54323e-52
1.00721e-52
-9.22626e-52
4.12874e-51
-1.88864e-50
8.20176e-50
-3.39404e-49
1.32994e-48
-4.89834e-48
1.67778e-47
-5.25642e-47
1.46298e-46
-3.39873e-46
5.41342e-46
1.33811e-46
-5.47772e-45
2.69103e-44
-8.79403e-44
2.05038e-43
-2.65129e-43
-3.47382e-43
3.3203e-42
-1.07481e-41
1.81079e-41
6.7387e-42
-1.4513e-40
4.43654e-40
-4.77621e-40
-1.40504e-39
7.1818e-39
-1.11357e-38
-1.55702e-38
1.08313e-37
-1.61062e-37
-3.00542e-37
1.60216e-36
-1.33966e-36
-7.05132e-36
1.97391e-35
1.04256e-35
-1.28393e-34
1.04524e-34
6.06065e-34
-1.19566e-33
-2.31545e-33
8.27594e-33
7.57633e-33
-4.81324e-32
-2.40466e-32
2.58956e-31
1.06258e-31
-1.33247e-30
-7.94515e-31
6.48804e-30
6.8929e-30
-2.81057e-29
-5.3625e-29
9.09022e-29
3.43626e-28
-5.29103e-29
-1.6615e-27
-1.98995e-27
4.5806e-27
1.61302e-26
7.596e-27
-5.53353e-26
-1.39882e-25
-6.07073e-26
4.31565e-25
1.22578e-24
1.28462e-24
-1.33023e-24
-8.00842e-24
-1.68108e-23
-2.0139e-23
-5.65851e-24
3.79625e-23
1.12445e-22
2.03799e-22
2.84255e-22
3.23364e-22
3.03037e-22
2.27673e-22
1.22878e-22
2.32076e-23
-4.3781e-23
-6.81884e-23
-5.81807e-23
-3.18208e-23
-6.45702e-24
8.31241e-24
1.16585e-23
8.08067e-24
2.90291e-24
-6.03502e-25
-1.73173e-24
-1.32425e-24
-5.05147e-25
6.6725e-26
2.07854e-25
5.0472e-52
-3.42349e-52
3.08015e-51
-1.38809e-50
6.37836e-50
-2.78402e-49
1.15818e-48
-4.56418e-48
1.69172e-47
-5.83751e-47
1.84591e-46
-5.20509e-46
1.23671e-45
-2.09262e-45
2.17455e-46
1.71915e-44
-8.96229e-44
3.00773e-43
-7.18287e-43
9.78856e-43
1.01134e-42
-1.1153e-41
3.71857e-41
-6.48316e-41
-1.57673e-41
4.91093e-40
-1.54788e-39
1.76072e-39
4.63017e-39
-2.48837e-38
4.00339e-38
5.0393e-38
-3.75763e-37
5.80219e-37
9.99071e-37
-5.60078e-36
4.97399e-36
2.41788e-35
-6.99155e-35
-3.264e-35
4.49204e-34
-3.86249e-34
-2.10133e-33
4.27611e-33
7.94128e-33
-2.93513e-32
-2.55452e-32
1.70177e-31
7.91608e-32
-9.15038e-31
-3.49121e-31
4.71325e-30
2.69524e-30
-2.2997e-29
-2.39435e-29
9.98891e-29
1.88458e-28
-3.2427e-28
-1.21461e-27
1.95418e-28
5.88762e-27
7.04874e-27
-1.62065e-26
-5.72191e-26
-2.74742e-26
1.952e-25
4.97659e-25
2.26412e-25
-1.51061e-24
-4.35654e-24
-4.69293e-24
4.35506e-24
2.79639e-23
5.99656e-23
7.46289e-23
2.95904e-23
-1.14553e-22
-3.64589e-22
-6.73476e-22
-9.46691e-22
-1.08016e-21
-1.01187e-21
-7.56694e-22
-4.02057e-22
-6.58606e-23
1.5819e-22
2.36993e-22
1.99216e-22
1.07055e-22
1.97809e-23
-3.02488e-23
-4.08189e-23
-2.78195e-23
-9.69443e-24
2.38244e-24
6.13901e-24
4.60663e-24
1.71454e-24
-2.71138e-25
-7.35453e-25
-1.45328e-51
1.04672e-51
-9.16275e-51
4.17342e-50
-1.93038e-49
8.48718e-49
-3.55683e-48
1.41252e-47
-5.27911e-47
1.83863e-46
-5.87907e-46
1.68248e-45
-4.09356e-45
7.33351e-45
-3.00911e-45
-4.82068e-44
2.71162e-43
-9.3958e-43
2.30782e-42
-3.33077e-42
-2.49023e-42
3.41015e-41
-1.17973e-40
2.1418e-40
2.0644e-41
-1.51598e-39
4.9667e-39
-6.02297e-39
-1.37854e-38
7.92074e-38
-1.33306e-37
-1.46021e-37
1.19847e-36
-1.93854e-36
-3.00798e-36
1.80436e-35
-1.72226e-35
-7.59643e-35
2.2909e-34
8.93349e-35
-1.44934e-33
1.33259e-33
6.70009e-33
-1.41923e-32
-2.49468e-32
9.64156e-32
7.83009e-32
-5.56864e-31
-2.33826e-31
2.99234e-30
1.02656e-30
-1.54361e-29
-8.31491e-30
7.55358e-29
7.64191e-29
-3.29386e-28
-6.11409e-28
1.07563e-27
3.97317e-27
-6.87862e-28
-1.93396e-26
-2.30773e-26
5.32417e-26
1.88095e-25
9.1811e-26
-6.3855e-25
-1.64168e-24
-7.8297e-25
4.89745e-24
1.43628e-23
1.59399e-23
-1.29777e-23
-9.03484e-23
-1.98592e-22
-2.57751e-22
-1.33838e-22
2.99658e-22
1.06764e-21
2.0253e-21
2.87706e-21
3.29578e-21
3.08581e-21
2.2933e-21
1.1926e-21
1.53518e-22
-5.31298e-22
-7.607e-22
-6.27782e-22
-3.29861e-22
-5.31575e-23
1.02368e-22
1.3219e-22
8.82783e-23
2.95972e-23
-8.7467e-24
-2.0172e-23
-1.4806e-23
-5.34732e-24
1.0207e-24
2.41141e-24
3.41995e-51
-2.75758e-51
2.29754e-50
-1.06682e-49
4.9912e-49
-2.22159e-48
9.42303e-48
-3.78792e-47
1.43354e-46
-5.06018e-46
1.64269e-45
-4.79014e-45
1.19802e-44
-2.27478e-44
1.58168e-44
1.15524e-43
-7.23087e-43
2.61159e-42
-6.64622e-42
1.02558e-41
4.47764e-42
-9.22256e-41
3.35456e-40
-6.41072e-40
5.20729e-41
4.15611e-39
-1.43591e-38
1.88442e-38
3.57667e-38
-2.26763e-37
4.04736e-37
3.61532e-37
-3.44239e-36
5.91836e-36
7.92999e-36
-5.257e-35
5.49629e-35
2.13655e-34
-6.83201e-34
-1.96519e-34
4.23398e-33
-4.24462e-33
-1.92502e-32
4.30921e-32
7.01107e-32
-2.88841e-31
-2.1165e-31
1.65986e-30
5.92335e-31
-8.9129e-30
-2.57285e-30
4.60803e-29
2.26311e-29
-2.26464e-28
-2.19403e-28
9.9344e-28
1.79905e-27
-3.27505e-27
-1.18375e-26
2.30101e-27
5.80189e-26
6.86602e-26
-1.60213e-25
-5.64405e-25
-2.7859e-25
1.90939e-24
4.94782e-24
2.47428e-24
-1.44877e-23
-4.32931e-23
-4.96687e-23
3.42951e-23
2.65909e-22
6.02135e-22
8.19734e-22
5.35675e-22
-6.18772e-22
-2.72769e-21
-5.39212e-21
-7.77997e-21
-8.96386e-21
-8.38645e-21
-6.17622e-21
-3.10932e-21
-2.30918e-22
1.63652e-21
2.21723e-21
1.78641e-21
9.1031e-22
1.16598e-22
-3.17937e-22
-3.89664e-22
-2.53598e-22
-8.06893e-23
2.95413e-23
6.05274e-23
4.3244e-23
1.50238e-23
-3.52419e-24
-7.21728e-24
-5.03589e-51
5.61593e-51
-4.12759e-50
2.0164e-49
-9.70274e-49
4.44516e-48
-1.93675e-47
7.98816e-47
-3.09981e-46
1.12201e-45
-3.73955e-45
1.12338e-44
-2.92068e-44
5.94362e-44
-5.91549e-44
-2.12036e-43
1.59428e-42
-6.13034e-42
1.64247e-41
-2.76672e-41
-1.71805e-42
2.07905e-40
-8.18821e-40
1.68383e-39
-5.38362e-40
-9.58763e-39
3.60358e-38
-5.26774e-38
-7.44624e-38
5.6157e-37
-1.09164e-36
-6.7695e-37
8.57664e-36
-1.61157e-35
-1.69833e-35
1.33986e-34
-1.58782e-34
-5.14762e-34
1.80436e-33
2.49379e-34
-1.08463e-32
1.22724e-32
4.80363e-32
-1.16965e-31
-1.68532e-31
7.69276e-31
4.72949e-31
-4.38898e-30
-1.14519e-30
2.35469e-29
4.8198e-30
-1.22181e-28
-5.0952e-29
6.04612e-28
5.45007e-28
-2.67805e-27
-4.65719e-27
8.96971e-27
3.1279e-26
-7.28226e-27
-1.55168e-25
-1.80367e-25
4.32169e-25
1.50813e-24
7.45087e-25
-5.09913e-24
-1.33004e-23
-6.97749e-24
3.81656e-23
1.16555e-22
1.39001e-22
-7.64335e-23
-6.94794e-22
-1.63451e-21
-2.35642e-21
-1.90249e-21
6.75011e-22
5.63307e-21
1.20285e-20
1.78276e-20
2.074e-20
1.93795e-20
1.40548e-20
6.6767e-21
-1.85054e-22
-4.52541e-21
-5.70341e-21
-4.44e-21
-2.15914e-21
-1.63372e-22
8.87481e-22
1.01803e-21
6.39398e-22
1.87953e-22
-9.02638e-23
-1.61858e-22
-1.11622e-22
-3.67165e-23
1.09825e-23
1.92388e-23
-5.86197e-51
-5.08811e-51
7.52065e-51
-9.75376e-50
6.23608e-49
-3.55962e-48
1.82568e-47
-8.5763e-47
3.70822e-46
-1.47402e-45
5.34783e-45
-1.74372e-44
4.95373e-44
-1.13994e-43
1.63311e-43
1.74431e-43
-2.38302e-42
1.05288e-41
-3.12516e-41
6.09858e-41
-2.99652e-41
-3.27681e-40
1.54221e-39
-3.62462e-39
2.57944e-39
1.60063e-38
-7.20734e-38
1.25887e-37
9.0953e-38
-1.09804e-36
2.48523e-36
4.67047e-37
-1.70042e-35
3.73718e-35
2.27086e-35
-2.77944e-34
4.02564e-34
9.51899e-34
-3.99572e-33
4.7608e-34
2.27561e-32
-3.12982e-32
-9.57422e-32
2.71803e-31
3.09413e-31
-1.73334e-30
-7.12875e-31
9.7711e-30
8.83778e-31
-5.2361e-29
-2.79951e-30
2.73543e-28
7.74608e-29
-1.37085e-27
-1.06927e-27
6.18067e-27
9.95271e-27
-2.13131e-26
-6.95528e-26
2.16358e-26
3.5331e-25
3.94443e-25
-1.00474e-24
-3.42227e-24
-1.65104e-24
1.16455e-23
3.04658e-23
1.67844e-23
-8.54932e-23
-2.6823e-22
-3.36142e-22
1.26114e-22
1.53323e-21
3.81138e-21
5.92779e-21
5.92645e-21
1.78198e-21
-7.19665e-21
-1.92805e-20
-3.04895e-20
-3.62567e-20
-3.37819e-20
-2.36492e-20
-9.64816e-21
3.13844e-21
1.08061e-20
1.22214e-20
8.97187e-21
3.9908e-21
-1.2479e-22
-2.1438e-21
-2.23661e-21
-1.32627e-21
-3.35668e-22
2.42477e-22
3.68246e-22
2.40815e-22
7.22693e-23
-3.00402e-23
-4.35756e-23
8.27649e-50
-2.43922e-50
3.54032e-49
-1.37553e-48
5.72538e-48
-2.2169e-47
8.07815e-47
-2.73353e-46
8.4521e-46
-2.3217e-45
5.34976e-45
-8.77075e-45
1.55586e-45
5.82847e-44
-2.66951e-43
6.72553e-43
-5.26124e-43
-4.34838e-42
2.67504e-41
-8.72751e-41
1.63968e-40
1.11084e-41
-1.33781e-39
5.12627e-39
-9.08234e-39
-5.1812e-39
8.26189e-38
-2.30616e-37
1.38218e-37
1.1663e-36
-4.16507e-36
3.22647e-36
1.91956e-35
-6.56703e-35
2.18157e-35
3.68491e-34
-8.39544e-34
-7.79849e-34
6.37453e-33
-4.81502e-33
-3.13878e-32
6.64355e-32
1.11023e-31
-4.86691e-31
-2.40704e-31
2.90145e-30
-2.04486e-31
-1.59061e-29
5.29668e-30
8.50591e-29
-2.7801e-29
-4.52202e-28
2.21307e-29
2.33833e-27
1.14067e-27
-1.09999e-26
-1.44512e-26
4.05344e-26
1.12893e-25
-5.94961e-26
-6.10097e-25
-6.05043e-25
1.8382e-24
5.84121e-24
2.51532e-24
-2.04665e-23
-5.30343e-23
-3.07658e-23
1.45034e-22
4.73774e-22
6.426e-22
-6.9445e-23
-2.50728e-21
-6.91883e-21
-1.21814e-20
-1.56893e-20
-1.44076e-20
-6.79271e-21
5.59527e-21
1.81144e-20
2.51051e-20
2.29603e-20
1.22831e-20
-2.31304e-21
-1.46889e-20
-2.03673e-20
-1.84994e-20
-1.1631e-20
-3.76122e-21
1.88735e-21
4.11046e-21
3.58512e-21
1.85532e-21
2.72568e-22
-5.40169e-22
-6.3393e-22
-3.71507e-22
-8.76892e-23
6.81e-23
7.43954e-23
-3.93794e-49
1.73051e-49
-1.95778e-48
8.18214e-48
-3.59037e-47
1.48767e-46
-5.87303e-46
2.19358e-45
-7.69669e-45
2.51117e-44
-7.5019e-44
1.99937e-43
-4.51249e-43
7.4685e-43
-2.91099e-43
-3.99363e-42
1.99723e-41
-5.89824e-41
1.10755e-40
-5.0178e-41
-5.4318e-40
2.37726e-39
-5.07544e-39
2.34188e-39
2.46124e-38
-9.38248e-38
1.33893e-37
1.89837e-37
-1.35493e-36
2.44769e-36
2.00732e-36
-1.94497e-35
3.18957e-35
4.68841e-35
-2.78844e-34
2.4383e-34
1.18004e-33
-3.24428e-33
-1.96504e-33
2.06654e-32
-1.33607e-32
-9.93755e-32
1.62362e-31
4.09879e-31
-1.12634e-30
-1.60089e-30
6.48487e-30
6.78587e-30
-3.39884e-29
-3.56708e-29
1.65233e-28
2.27739e-28
-7.16676e-28
-1.52128e-27
2.39605e-27
9.29108e-27
-2.30995e-27
-4.61107e-26
-4.66249e-26
1.47334e-25
4.35145e-25
5.65933e-26
-1.83674e-24
-3.79195e-24
1.95523e-25
1.68853e-23
3.8771e-23
2.4121e-23
-1.0158e-22
-3.82746e-22
-6.83093e-22
-4.73578e-22
1.33773e-21
6.37165e-21
1.63954e-20
3.25799e-20
5.46075e-20
8.0048e-20
1.0445e-19
1.22366e-19
1.29059e-19
1.22253e-19
1.03106e-19
7.59276e-20
4.67206e-20
2.1183e-20
3.03171e-21
-6.72783e-21
-9.45389e-21
-7.79709e-21
-4.48714e-21
-1.4762e-21
3.49696e-22
9.76977e-22
8.42942e-22
4.40966e-22
9.61097e-23
-7.67014e-23
-1.08472e-22
-4.94922e-23
1.30811e-48
-6.61945e-49
6.92308e-48
-2.97015e-47
1.32661e-46
-5.61414e-46
2.26779e-45
-8.68976e-45
3.1387e-44
-1.05916e-43
3.29572e-43
-9.25781e-43
2.25638e-42
-4.33685e-42
4.32828e-42
1.15472e-41
-8.54042e-41
3.01706e-40
-7.11127e-40
8.97695e-40
1.21192e-39
-1.0774e-38
3.25157e-38
-4.7142e-38
-4.66837e-38
4.58815e-37
-1.17635e-36
7.3228e-37
5.16631e-36
-1.89891e-35
1.91579e-35
6.61338e-35
-2.73335e-34
2.27957e-34
1.11722e-33
-3.56188e-33
2.3089e-34
1.99077e-32
-3.33126e-32
-6.21421e-32
2.68228e-31
1.44753e-32
-1.47277e-30
1.33366e-30
6.73557e-30
-1.17564e-29
-2.83926e-29
7.33966e-29
1.21533e-28
-3.94666e-28
-5.80162e-28
1.91958e-27
3.17862e-27
-8.31804e-27
-1.86953e-26
2.90692e-26
1.06361e-25
-5.05183e-26
-5.27945e-25
-3.09356e-25
1.98e-24
3.80008e-24
-3.34479e-24
-2.08908e-23
-1.8816e-23
5.37841e-23
1.70616e-22
1.0708e-22
-4.50213e-22
-1.33798e-21
-1.20545e-21
2.22432e-21
9.69122e-21
1.60275e-20
6.8763e-21
-3.89578e-20
-1.39198e-19
-2.93422e-19
-4.73273e-19
-6.26833e-19
-6.9874e-19
-6.56786e-19
-5.09604e-19
-3.04211e-19
-1.0428e-19
3.82589e-20
1.02573e-19
1.00474e-19
6.27396e-20
2.06265e-20
-6.96249e-21
-1.61581e-20
-1.29416e-20
-5.69569e-21
-1.06854e-22
2.11622e-21
1.89835e-21
8.48425e-22
1.80149e-23
-2.57233e-22
-3.16366e-48
1.77234e-48
-1.75743e-47
7.6843e-47
-3.47579e-46
1.49269e-45
-6.12434e-45
2.38693e-44
-8.78498e-44
3.02836e-43
-9.66299e-43
2.80133e-42
-7.13663e-42
1.48357e-41
-1.94122e-41
-1.75444e-41
2.25833e-40
-8.99717e-40
2.34634e-39
-3.65695e-39
-1.21525e-39
2.97227e-38
-1.05089e-37
1.87928e-37
2.80009e-38
-1.31829e-36
4.10878e-36
-4.39648e-36
-1.28492e-35
6.40434e-35
-9.38411e-35
-1.51636e-34
9.40521e-34
-1.25361e-33
-2.89505e-33
1.33143e-32
-8.369e-33
-6.25425e-32
1.50606e-31
1.30147e-31
-1.03007e-30
5.49053e-31
5.10786e-30
-8.01148e-30
-2.1043e-29
5.82752e-29
7.83977e-29
-3.44016e-28
-2.99457e-28
1.84319e-27
1.41915e-27
-9.27942e-27
-8.93243e-27
4.33164e-26
6.34332e-26
-1.74294e-25
-4.27786e-25
4.73955e-25
2.46131e-24
4.59172e-25
-1.07053e-23
-1.62643e-23
2.40243e-23
1.08816e-22
8.02551e-23
-3.14967e-22
-9.37547e-22
-6.28296e-22
2.37241e-21
7.77341e-21
9.38631e-21
-5.28247e-21
-4.63604e-20
-1.03901e-19
-1.32155e-19
-5.39896e-20
2.03727e-19
6.55362e-19
1.21655e-18
1.71488e-18
1.95937e-18
1.83571e-18
1.37092e-18
7.25334e-19
1.14957e-19
-2.89379e-19
-4.28629e-19
-3.5683e-19
-1.88437e-19
-3.12292e-20
5.71033e-20
7.39653e-20
4.9125e-20
1.61517e-20
-5.17075e-21
-1.13199e-20
-8.15173e-21
-2.8355e-21
6.60985e-22
1.34772e-21
4.48496e-48
-2.96748e-48
2.71274e-47
-1.22312e-46
5.64339e-46
-2.47851e-45
1.0407e-44
-4.15655e-44
1.57052e-43
-5.57263e-43
1.83772e-42
-5.54405e-42
1.48952e-41
-3.37469e-41
5.52105e-41
-1.45701e-41
-3.4035e-40
1.66191e-39
-4.9054e-39
9.2073e-39
-3.76417e-39
-4.84712e-38
2.11755e-37
-4.56515e-37
2.12567e-37
2.28501e-36
-8.8792e-36
1.31029e-35
1.75335e-35
-1.33344e-34
2.53457e-34
1.73708e-34
-1.99e-33
3.55094e-33
4.306e-33
-3.01298e-32
3.19808e-32
1.20791e-31
-3.85139e-31
-1.18581e-31
2.37171e-30
-2.2651e-30
-1.08489e-29
2.31767e-29
4.05083e-29
-1.55411e-28
-1.30584e-28
8.91624e-28
4.19738e-28
-4.76515e-27
-1.97705e-27
2.43891e-26
1.54136e-26
-1.17672e-25
-1.33325e-25
4.99309e-25
1.0188e-24
-1.52192e-24
-6.36154e-24
4.85544e-27
2.94752e-23
4.05109e-23
-7.18297e-23
-2.96006e-22
-2.04273e-22
8.83858e-22
2.61266e-21
1.87222e-21
-6.31636e-21