/*--------------------------------*- C++ -*----------------------------------*\
  =========                 |
  \\      /  F ield         | OpenFOAM: The Open Source CFD Toolbox
   \\    /   O peration     | Website:  https://openfoam.org
    \\  /    A nd           | Version:  13
     \\/     M anipulation  |
\*---------------------------------------------------------------------------*/
FoamFile
{
    format      ascii;
    class       volScalarField;
    location    "7.7";
    object      T;
}
// * * * * * * * * * * * * * * * * * * * * * * * * * * * * * * * * * * * * * //

dimensions      [0 0 0 1 0 0 0];

internalField   nonuniform List<scalar> 
10000
(
1.29688e-37
-2.33394e-37
-1.40198e-36
-1.40221e-36
6.2481e-36
2.24595e-35
8.19734e-36
-1.23801e-34
-3.17787e-34
6.83631e-35
2.05763e-33
4.07315e-33
-3.08125e-33
-3.00617e-32
-4.86819e-32
5.91894e-32
3.95915e-31
5.61274e-31
-8.34124e-31
-4.76449e-30
-6.43559e-30
9.31293e-30
5.25504e-29
7.41059e-29
-8.00278e-29
-5.2609e-28
-8.3884e-28
4.24188e-28
4.65085e-27
8.92599e-27
1.11707e-27
-3.42353e-26
-8.4464e-26
-6.23317e-26
1.81015e-25
6.63714e-25
8.98688e-25
-2.7754e-25
-3.85468e-24
-8.24979e-24
-6.70135e-24
1.12157e-23
4.87124e-23
8.24251e-23
5.01164e-23
-1.24907e-22
-4.50093e-22
-7.44384e-22
-5.81423e-22
5.62222e-22
2.87711e-21
5.64113e-21
6.88044e-21
3.75581e-21
-6.11516e-21
-2.28175e-20
-4.28349e-20
-5.94553e-20
-6.53298e-20
-5.62885e-20
-3.43849e-20
-8.10386e-21
1.09642e-20
1.35961e-20
-2.32205e-21
-3.0483e-20
-5.9111e-20
-7.6585e-20
-7.66789e-20
-6.07501e-20
-3.61018e-20
-1.18758e-20
5.08861e-21
1.24287e-20
1.19017e-20
7.34679e-21
2.41827e-21
-7.85038e-22
-1.8825e-21
-1.559e-21
-7.38557e-22
-4.92864e-23
3.01946e-22
3.86754e-22
3.55022e-22
3.11554e-22
2.91517e-22
2.89576e-22
2.9268e-22
2.94444e-22
2.94559e-22
2.94284e-22
2.94183e-22
2.94203e-22
2.94223e-22
2.94223e-22
2.9422e-22
2.9422e-22
2.9422e-22
2.9422e-22
-2.33404e-37
-7.45281e-37
5.55905e-37
6.19491e-36
9.87742e-36
-1.88838e-35
-1.0541e-34
-1.12853e-34
4.10912e-34
1.61178e-33
1.09554e-33
-7.21463e-33
-2.26812e-32
-9.15219e-33
1.09229e-31
2.99475e-31
7.55242e-32
-1.46356e-30
-3.76117e-30
-9.11288e-31
1.74654e-29
4.51224e-29
1.70091e-29
-1.83563e-28
-5.12508e-28
-3.26827e-28
1.63664e-27
5.38204e-27
5.3659e-27
-1.1168e-26
-5.01839e-26
-7.26101e-26
3.63351e-26
3.88062e-25
7.9522e-25
3.95177e-25
-2.13473e-24
-6.75456e-24
-8.65194e-24
3.39574e-24
3.95587e-23
8.66524e-23
8.03732e-23
-9.06425e-23
-4.93804e-22
-9.56129e-22
-8.67826e-22
7.38762e-22
4.50108e-21
9.3655e-21
1.11742e-20
2.63862e-21
-2.36033e-20
-6.821e-20
-1.16523e-19
-1.32911e-19
-6.40726e-20
1.45166e-19
5.26213e-19
1.06119e-18
1.67124e-18
2.22914e-18
2.59601e-18
2.66951e-18
2.42296e-18
1.91716e-18
1.27888e-18
6.55533e-19
1.66156e-19
-1.30887e-19
-2.42931e-19
-2.23655e-19
-1.42301e-19
-5.64522e-20
2.01662e-21
2.65719e-20
2.65215e-20
1.57128e-20
4.75124e-21
-1.62752e-21
-3.36144e-21
-2.46632e-21
-9.31152e-22
1.84227e-22
6.8413e-22
7.88329e-22
7.52251e-22
7.12516e-22
6.99542e-22
7.0092e-22
7.03714e-22
7.04439e-22
7.04199e-22
7.04025e-22
7.04026e-22
7.0405e-22
7.04053e-22
7.0405e-22
7.0405e-22
7.0405e-22
-1.402e-36
5.5584e-37
1.18352e-35
2.13581e-35
-3.18832e-35
-2.06448e-34
-2.41727e-34
7.71603e-34
3.16392e-33
2.19119e-33
-1.41415e-32
-4.3845e-32
-1.43713e-32
2.18179e-31
5.62924e-31
4.60191e-32
-2.94949e-30
-6.83575e-30
1.26275e-31
3.54909e-29
7.95415e-29
3.89064e-30
-3.79695e-28
-8.86325e-28
-2.44461e-28
3.53658e-27
9.28754e-27
5.8036e-27
-2.70775e-26
-8.82701e-26
-9.35549e-26
1.43323e-25
7.18048e-25
1.14094e-24
-6.20767e-26
-4.49132e-24
-1.05979e-23
-9.269e-24
1.53319e-23
6.98864e-23
1.19032e-22
5.94028e-23
-2.42781e-22
-7.94296e-22
-1.22525e-21
-6.46496e-22
2.03183e-21
7.03923e-21
1.21384e-20
1.14747e-20
-3.47071e-21
-3.94156e-20
-9.34627e-20
-1.44634e-19
-1.49583e-19
-4.73448e-20
2.2491e-19
7.08283e-19
1.39866e-18
2.23322e-18
3.09443e-18
3.833e-18
4.30422e-18
4.40694e-18
4.11276e-18
3.47577e-18
2.61895e-18
1.70121e-18
8.75246e-19
2.50039e-19
-1.3029e-19
-2.85578e-19
-2.79749e-19
-1.91716e-19
-8.89113e-20
-1.21289e-20
2.6012e-20
3.26126e-20
2.26229e-20
9.34727e-21
5.66996e-23
-3.77953e-21
-3.91361e-21
-2.68949e-21
-1.59995e-21
-1.08704e-21
-9.92526e-22
-1.04452e-21
-1.09049e-21
-1.10184e-21
-1.09803e-21
-1.09466e-21
-1.09429e-21
-1.09474e-21
-1.09489e-21
-1.09485e-21
-1.09482e-21
-1.09483e-21
-1.09483e-21
-1.09483e-21
-1.4022e-36
6.19476e-36
2.13578e-35
3.64373e-36
-1.33932e-34
-3.10795e-34
1.94862e-34
2.39139e-33
3.94985e-33
-6.14927e-33
-3.72796e-32
-4.46104e-32
1.21115e-31
5.23024e-31
4.62811e-31
-1.89956e-30
-6.74593e-30
-4.72026e-30
2.52983e-29
8.11614e-29
5.22213e-29
-2.9148e-28
-9.16248e-28
-6.57491e-28
2.88049e-27
9.64747e-27
8.81247e-27
-2.33354e-26
-9.27734e-26
-1.12948e-25
1.33527e-25
7.82591e-25
1.27974e-24
-1.44273e-25
-5.37194e-24
-1.21093e-23
-8.3817e-24
2.48173e-23
8.93592e-23
1.25681e-22
-7.76215e-24
-4.43148e-22
-1.04192e-21
-1.08866e-21
6.40979e-22
4.89656e-21
9.99511e-21
1.00933e-20
-3.71481e-21
-3.69449e-20
-8.04844e-20
-1.00973e-19
-4.42133e-20
1.38565e-19
4.43655e-19
7.67993e-19
8.9738e-19
5.59484e-19
-4.58925e-19
-2.17435e-18
-4.32226e-18
-6.39036e-18
-7.78092e-18
-8.04197e-18
-7.05994e-18
-5.11614e-18
-2.77539e-18
-6.60841e-19
7.75798e-19
1.38522e-18
1.30857e-18
8.5331e-19
3.35035e-19
-3.82769e-20
-2.01759e-19
-1.99217e-19
-1.18047e-19
-3.3502e-20
1.69039e-20
3.04399e-20
2.20897e-20
8.11832e-21
-2.19791e-21
-6.89772e-21
-7.86071e-21
-7.45736e-21
-7.02188e-21
-6.87215e-21
-6.88452e-21
-6.91753e-21
-6.92772e-21
-6.92535e-21
-6.92298e-21
-6.9228e-21
-6.92312e-21
-6.9232e-21
-6.92316e-21
-6.92315e-21
-6.92315e-21
-6.92316e-21
6.24821e-36
9.87744e-36
-3.18838e-35
-1.33933e-34
-8.12259e-35
6.91401e-34
2.03081e-33
1.02595e-34
-1.2371e-32
-2.79573e-32
1.24714e-32
1.93455e-31
3.59201e-31
-3.0665e-31
-2.72185e-30
-4.43816e-30
4.8578e-30
3.4987e-29
5.41301e-29
-5.85323e-29
-4.12685e-28
-6.58077e-28
5.22703e-28
4.43108e-27
7.85457e-27
-2.46304e-27
-4.22335e-26
-8.87729e-26
-2.19673e-26
3.37991e-25
9.05143e-25
7.45152e-25
-1.96853e-24
-7.82472e-24
-1.11736e-23
3.45996e-24
5.16638e-23
1.14394e-22
9.15366e-23
-1.88885e-22
-7.98674e-22
-1.34274e-21
-6.45092e-22
2.87419e-21
9.41435e-21
1.475e-20
8.12642e-21
-2.44813e-20
-8.74865e-20
-1.54344e-19
-1.49757e-19
4.16279e-20
5.16759e-19
1.24263e-18
1.92775e-18
1.95326e-18
4.50944e-19
-3.42903e-18
-1.01143e-17
-1.92286e-17
-2.94384e-17
-3.86742e-17
-4.47153e-17
-4.59375e-17
-4.19147e-17
-3.3602e-17
-2.3009e-17
-1.25035e-17
-4.0463e-18
1.33338e-18
3.64954e-18
3.68871e-18
2.54224e-18
1.16937e-18
1.48728e-19
-3.47083e-19
-4.22495e-19
-2.84735e-19
-1.11631e-19
4.07451e-21
4.6921e-20
4.20935e-20
2.08865e-20
2.81904e-21
-6.36997e-21
-8.86235e-21
-8.54856e-21
-7.88779e-21
-7.61348e-21
-7.60983e-21
-7.65662e-21
-7.67357e-21
-7.67096e-21
-7.66762e-21
-7.66732e-21
-7.66775e-21
-7.66784e-21
-7.6678e-21
-7.66779e-21
-7.66779e-21
2.24597e-35
-1.88829e-35
-2.06448e-34
-3.10798e-34
6.91392e-34
3.492e-33
3.09955e-33
-1.52291e-32
-5.20783e-32
-2.03331e-32
2.67533e-31
7.03773e-31
-9.78824e-33
-4.03549e-30
-8.84102e-30
2.71085e-30
5.39825e-29
1.05764e-28
-4.66543e-29
-6.49586e-28
-1.22588e-27
4.61619e-28
7.03506e-27
1.37939e-26
-1.62954e-27
-6.75076e-26
-1.47954e-25
-4.12374e-26
5.50495e-25
1.45803e-24
1.09539e-24
-3.43227e-24
-1.25024e-23
-1.59942e-23
1.04368e-23
8.55056e-23
1.65846e-22
8.78439e-23
-3.77391e-22
-1.21898e-21
-1.68122e-21
-5.65448e-23
5.31333e-21
1.32498e-20
1.63025e-20
4.73346e-22
-4.67547e-20
-1.18221e-19
-1.66169e-19
-9.73864e-20
1.93141e-19
7.41429e-19
1.40929e-18
1.81078e-18
1.3353e-18
-7.00505e-19
-4.80716e-18
-1.10808e-17
-1.90789e-17
-2.7875e-17
-3.62681e-17
-4.30507e-17
-4.72372e-17
-4.8204e-17
-4.57579e-17
-4.01702e-17
-3.21817e-17
-2.29345e-17
-1.37861e-17
-6.01169e-18
-4.85803e-19
2.52601e-18
3.36742e-18
2.78566e-18
1.62037e-18
5.27604e-19
-1.57897e-19
-4.02437e-19
-3.50882e-19
-1.86896e-19
-4.02865e-20
3.90611e-20
5.94027e-20
5.04545e-20
3.67338e-20
2.87435e-20
2.66259e-20
2.70956e-20
2.77693e-20
2.79892e-20
2.79533e-20
2.79013e-20
2.78918e-20
2.78978e-20
2.79006e-20
2.79001e-20
2.78997e-20
2.78997e-20
2.78998e-20
2.78998e-20
8.19743e-36
-1.05408e-34
-2.41724e-34
1.9486e-34
2.03079e-33
3.09951e-33
-6.44289e-33
-3.37341e-32
-3.2893e-32
1.3688e-31
4.99593e-31
2.75273e-31
-2.34167e-30
-6.76396e-30
-1.59112e-30
3.44773e-29
8.55517e-29
3.65478e-30
-4.49059e-28
-1.02846e-27
3.27508e-31
5.2207e-27
1.18469e-26
1.39863e-27
-5.38126e-26
-1.29968e-25
-4.92768e-26
4.78203e-25
1.32775e-24
9.88191e-25
-3.40858e-24
-1.21465e-23
-1.44162e-23
1.53098e-23
9.35228e-23
1.62238e-22
2.92719e-23
-5.36543e-22
-1.39317e-21
-1.42839e-21
1.43677e-21
8.3751e-21
1.55209e-20
1.03649e-20
-2.43622e-20
-9.20976e-20
-1.5196e-19
-1.00226e-19
1.93511e-19
7.62546e-19
1.3591e-18
1.33565e-18
-2.13684e-19
-3.91111e-18
-9.23967e-18
-1.37865e-17
-1.32061e-17
-2.38097e-18
2.23157e-17
6.05121e-17
1.06431e-16
1.49702e-16
1.78536e-16
1.84105e-16
1.64158e-16
1.24095e-16
7.49113e-17
2.89808e-17
-4.33249e-18
-2.13205e-17
-2.39479e-17
-1.77109e-17
-8.70824e-18
-1.34575e-18
2.55319e-18
3.31548e-18
2.31493e-18
9.23862e-19
-5.28901e-20
-4.27562e-19
-3.81798e-19
-1.809e-19
-3.77448e-21
9.06957e-20
1.19065e-19
1.176e-19
1.11082e-19
1.07932e-19
1.07652e-19
1.08101e-19
1.08318e-19
1.08313e-19
1.08276e-19
1.08268e-19
1.08272e-19
1.08274e-19
1.08274e-19
1.08273e-19
1.08273e-19
1.08273e-19
-1.23802e-34
-1.12853e-34
7.71609e-34
2.3914e-33
1.02594e-34
-1.52292e-32
-3.37342e-32
2.19747e-32
2.56416e-31
4.2904e-31
-5.90995e-31
-3.83622e-30
-5.07808e-30
1.06154e-29
5.22757e-29
5.85082e-29
-1.52874e-28
-6.58875e-28
-6.89678e-28
1.8424e-27
7.72741e-27
8.51758e-27
-1.84084e-26
-8.38475e-26
-1.07403e-25
1.41101e-25
8.24083e-25
1.3043e-24
-5.66219e-25
-7.02066e-24
-1.43331e-23
-4.9018e-24
4.72198e-23
1.33995e-22
1.38202e-22
-1.84201e-22
-9.78996e-22
-1.72059e-21
-6.60807e-22
4.55168e-21
1.36889e-20
1.85706e-20
3.7578e-22
-6.06724e-20
-1.55293e-19
-2.03047e-19
-3.66033e-20
5.24189e-19
1.46251e-18
2.26564e-18
1.73746e-18
-1.75153e-18
-9.29758e-18
-1.9828e-17
-2.83943e-17
-2.54879e-17
1.49666e-18
6.42332e-17
1.67785e-16
3.05529e-16
4.57423e-16
5.93463e-16
6.81977e-16
6.99978e-16
6.41417e-16
5.19701e-16
3.63267e-16
2.06036e-16
7.67477e-17
-8.60915e-18
-4.88278e-17
-5.41462e-17
-3.99122e-17
-2.03327e-17
-4.6033e-18
3.88155e-18
6.00237e-18
4.51928e-18
2.08101e-18
2.43212e-19
-5.75193e-19
-6.36569e-19
-3.8009e-19
-1.1933e-19
2.80762e-20
7.49462e-20
7.40825e-20
6.43128e-20
5.94843e-20
5.90797e-20
5.9776e-20
6.00911e-20
6.00709e-20
6.00156e-20
6.00071e-20
6.00136e-20
6.00155e-20
6.00149e-20
6.00147e-20
6.00147e-20
-3.1779e-34
4.10902e-34
3.16392e-33
3.94989e-33
-1.23708e-32
-5.20783e-32
-3.28933e-32
2.56415e-31
7.57448e-31
7.93955e-32
-4.36878e-30
-9.99398e-30
3.50516e-30
6.47755e-29
1.22905e-28
-8.64536e-29
-8.5933e-28
-1.44893e-27
1.27886e-27
1.03384e-26
1.67418e-26
-1.37416e-26
-1.12969e-25
-1.9048e-25
9.86445e-26
1.10709e-24
2.09274e-24
-1.12352e-25
-9.40556e-24
-2.13421e-23
-1.01853e-23
6.4078e-23
1.9143e-22
1.97499e-22
-2.74179e-22
-1.39875e-21
-2.31339e-21
-4.53292e-22
7.12034e-21
1.87079e-20
2.10524e-20
-1.08966e-20
-9.45145e-20
-1.96258e-19
-1.89917e-19
1.21438e-19
8.53052e-19
1.76302e-18
2.0149e-18
2.81851e-19
-4.53729e-18
-1.20437e-17
-1.90871e-17
-1.95001e-17
-5.59452e-18
2.87085e-17
8.44465e-17
1.55886e-16
2.31923e-16
3.00288e-16
3.52378e-16
3.8584e-16
4.0337e-16
4.08611e-16
4.02105e-16
3.80252e-16
3.38155e-16
2.74472e-16
1.949e-16
1.11762e-16
3.96862e-17
-1.0158e-17
-3.40955e-17
-3.62902e-17
-2.57204e-17
-1.18137e-17
-1.0457e-18
4.2275e-18
4.8755e-18
3.15122e-18
1.08185e-18
-2.82653e-19
-8.07122e-19
-8.16211e-19
-6.68146e-19
-5.56917e-19
-5.1892e-19
-5.20962e-19
-5.29779e-19
-5.33408e-19
-5.3322e-19
-5.32503e-19
-5.32321e-19
-5.32393e-19
-5.32436e-19
-5.32432e-19
-5.32426e-19
-5.32426e-19
-5.32427e-19
-5.32427e-19
6.8361e-35
1.61176e-33
2.19115e-33
-6.14924e-33
-2.7957e-32
-2.03327e-32
1.3688e-31
4.29038e-31
7.93917e-32
-2.48354e-30
-5.95874e-30
1.74615e-30
3.91088e-29
7.67987e-29
-5.27464e-29
-5.5087e-28
-9.436e-28
8.80819e-28
7.05067e-27
1.13244e-26
-1.08304e-26
-8.24179e-26
-1.34254e-25
9.76265e-26
8.74074e-25
1.55562e-24
-4.71518e-25
-8.22261e-24
-1.70726e-23
-3.69816e-24
6.52483e-23
1.69615e-22
1.29542e-22
-3.85526e-22
-1.43808e-21
-1.92588e-21
9.11952e-22
9.45927e-21
1.94995e-20
1.30954e-20
-3.71512e-20
-1.36112e-19
-2.07696e-19
-5.96765e-20
5.25586e-19
1.48972e-18
2.07372e-18
6.68118e-19
-4.43782e-18
-1.30332e-17
-2.03109e-17
-1.56158e-17
1.44549e-17
7.68119e-17
1.58411e-16
2.15401e-16
1.74504e-16
-4.65746e-17
-5.02107e-16
-1.17887e-15
-1.97542e-15
-2.7172e-15
-3.20885e-15
-3.305e-15
-2.96836e-15
-2.28699e-15
-1.44171e-15
-6.38404e-16
-3.67612e-17
2.94183e-16
3.7884e-16
3.02644e-16
1.65435e-16
4.32839e-17
-2.81479e-17
-4.89171e-17
-3.83126e-17
-1.79831e-17
-1.93569e-18
5.36952e-18
5.80449e-18
3.21697e-18
5.37924e-19
-1.05081e-18
-1.61736e-18
-1.65871e-18
-1.57129e-18
-1.5169e-18
-1.50692e-18
-1.51234e-18
-1.51612e-18
-1.51647e-18
-1.51595e-18
-1.51578e-18
-1.51582e-18
-1.51585e-18
-1.51585e-18
-1.51584e-18
-1.51584e-18
-1.51584e-18
2.05764e-33
1.09553e-33
-1.41415e-32
-3.72797e-32
1.24714e-32
2.67533e-31
4.99594e-31
-5.90996e-31
-4.36879e-30
-5.95875e-30
1.30558e-29
6.38074e-29
6.52791e-29
-2.19112e-28
-8.53648e-28
-6.96671e-28
3.07324e-27
1.06339e-26
7.87819e-27
-3.70397e-26
-1.24296e-25
-9.9275e-26
3.81621e-25
1.35758e-24
1.33463e-24
-3.21162e-24
-1.3589e-23
-1.74399e-23
1.87969e-23
1.19832e-22
2.04753e-22
-1.07584e-23
-8.62585e-22
-2.03273e-21
-1.52129e-21
4.14749e-21
1.58749e-20
2.35277e-20
2.12251e-22
-8.33325e-20
-2.07881e-19
-2.33977e-19
1.09811e-19
1.04495e-18
2.29327e-18
2.54617e-18
-5.54721e-19
-9.09528e-18
-2.18203e-17
-3.03152e-17
-1.74249e-17
3.78538e-17
1.46064e-16
2.85417e-16
3.81212e-16
3.00806e-16
-1.22773e-16
-1.03564e-15
-2.49019e-15
-4.38374e-15
-6.44207e-15
-8.26822e-15
-9.44997e-15
-9.69066e-15
-8.91218e-15
-7.28649e-15
-5.18094e-15
-3.03894e-15
-1.24448e-15
-2.23614e-17
5.93678e-16
7.24298e-16
5.66434e-16
3.11719e-16
9.19531e-17
-3.66737e-17
-7.77629e-17
-6.46981e-17
-3.33832e-17
-7.05937e-18
6.26277e-18
8.74456e-18
6.00452e-18
2.5747e-18
4.47064e-19
-3.08564e-19
-3.43982e-19
-2.12494e-19
-1.37879e-19
-1.28066e-19
-1.37493e-19
-1.42537e-19
-1.42495e-19
-1.41675e-19
-1.4151e-19
-1.41601e-19
-1.41634e-19
-1.41626e-19
-1.41622e-19
-1.41623e-19
4.07318e-33
-7.21452e-33
-4.38449e-32
-4.46108e-32
1.93454e-31
7.03772e-31
2.75276e-31
-3.83621e-30
-9.99398e-30
1.74612e-30
6.38073e-29
1.28799e-28
-8.93407e-29
-9.32838e-28
-1.55043e-27
1.73889e-27
1.2289e-26
1.80113e-26
-2.44529e-26
-1.47787e-25
-2.07647e-25
2.69319e-25
1.62601e-24
2.39303e-24
-2.23114e-24
-1.61887e-23
-2.69637e-23
1.02084e-23
1.41587e-22
2.84241e-22
6.51792e-23
-1.02009e-21
-2.65223e-21
-2.1956e-21
5.10115e-21
2.04024e-20
2.95132e-20
-3.76753e-21
-1.13813e-19
-2.59941e-19
-2.39644e-19
2.82146e-19
1.4576e-18
2.65067e-18
1.9776e-18
-3.10234e-18
-1.33529e-17
-2.39759e-17
-2.22199e-17
9.24717e-18
8.02396e-17
1.74982e-16
2.38599e-16
1.82646e-16
-8.19664e-17
-5.92968e-16
-1.29266e-15
-2.02487e-15
-2.58946e-15
-2.83644e-15
-2.75006e-15
-2.46867e-15
-2.21813e-15
-2.18886e-15
-2.42562e-15
-2.79644e-15
-3.0615e-15
-3.00266e-15
-2.53898e-15
-1.7649e-15
-8.96466e-16
-1.6394e-16
2.86755e-16
4.36005e-16
3.67104e-16
2.04292e-16
5.18565e-17
-3.78101e-17
-6.23072e-17
-4.68764e-17
-2.00615e-17
4.90913e-19
1.00801e-17
1.17966e-17
1.04203e-17
9.00038e-18
8.41331e-18
8.3855e-18
8.49132e-18
8.54445e-18
8.54577e-18
8.53671e-18
8.5338e-18
8.53456e-18
8.53517e-18
8.53515e-18
8.53507e-18
8.53506e-18
8.53507e-18
8.53507e-18
-3.08122e-33
-2.2681e-32
-1.4371e-32
1.21115e-31
3.59198e-31
-9.79223e-33
-2.34167e-30
-5.07805e-30
3.5052e-30
3.91088e-29
6.52789e-29
-8.9341e-29
-5.84165e-28
-7.86496e-28
1.57676e-27
7.97076e-27
9.24957e-27
-2.24873e-26
-1.00612e-25
-1.10646e-25
2.68554e-25
1.17945e-24
1.36813e-24
-2.64793e-24
-1.27504e-23
-1.70479e-23
1.97642e-23
1.24409e-22
2.03186e-22
-7.09689e-23
-1.04921e-21
-2.18816e-21
-8.30236e-22
6.97923e-21
2.0079e-20
2.08541e-20
-2.71327e-20
-1.447e-19
-2.51579e-19
-8.91013e-20
6.75954e-19
1.97263e-18
2.56711e-18
-2.12735e-19
-8.88984e-18
-2.14878e-17
-2.60981e-17
-2.17864e-19
7.68323e-17
1.94602e-16
2.76035e-16
1.66118e-16
-3.15517e-16
-1.23717e-15
-2.36548e-15
-3.02345e-15
-2.12987e-15
1.49129e-15
8.5752e-15
1.88606e-14
3.08131e-14
4.18614e-14
4.91576e-14
5.05921e-14
4.56226e-14
3.55207e-14
2.29091e-14
1.07973e-14
1.55589e-15
-3.73685e-15
-5.35953e-15
-4.50425e-15
-2.61523e-15
-8.3095e-16
2.76611e-16
6.57246e-16
5.5929e-16
2.88299e-16
5.51623e-17
-6.20827e-17
-7.98725e-17
-4.91566e-17
-1.24392e-17
1.10235e-17
2.02425e-17
2.14817e-17
2.04021e-17
1.95855e-17
1.93878e-17
1.94476e-17
1.95046e-17
1.95138e-17
1.95072e-17
1.95042e-17
1.95046e-17
1.9505e-17
1.95051e-17
1.9505e-17
1.9505e-17
1.9505e-17
-3.00617e-32
-9.15203e-33
2.1818e-31
5.23024e-31
-3.06652e-31
-4.03549e-30
-6.76396e-30
1.06154e-29
6.47756e-29
7.67988e-29
-2.19112e-28
-9.32838e-28
-7.86498e-28
3.57572e-27
1.23423e-26
7.76834e-27
-4.95726e-26
-1.52645e-25
-8.37997e-26
5.97483e-25
1.78061e-24
1.08152e-24
-6.2393e-24
-1.95301e-23
-1.55757e-23
5.45147e-23
1.97718e-22
2.17969e-22
-3.56719e-22
-1.77942e-21
-2.70168e-21
9.61822e-22
1.32909e-20
2.80284e-20
1.54815e-20
-7.01192e-20
-2.28696e-19
-2.99887e-19
9.07874e-20
1.28574e-18
2.86935e-18
2.7714e-18
-2.61786e-18
-1.56041e-17
-3.10386e-17
-3.00251e-17
1.82554e-17
1.36407e-16
2.97567e-16
3.79543e-16
1.55069e-16
-6.30197e-16
-2.06361e-15
-3.79172e-15
-4.78707e-15
-3.32982e-15
2.65263e-15
1.48805e-14
3.38425e-14
5.80995e-14
8.41505e-14
1.07073e-13
1.2183e-13
1.24829e-13
1.15124e-13
9.47938e-14
6.82959e-14
4.10694e-14
1.79138e-14
1.7578e-15
-6.7889e-15
-9.06215e-15
-7.43665e-15
-4.32723e-15
-1.47725e-15
2.94567e-16
9.45433e-16
8.54936e-16
4.77275e-16
1.29304e-16
-6.28867e-17
-1.11819e-16
-8.50014e-17
-4.27437e-17
-1.44618e-17
-3.62811e-18
-2.6796e-18
-4.33249e-18
-5.37348e-18
-5.54358e-18
-5.42446e-18
-5.35246e-18
-5.35053e-18
-5.36163e-18
-5.36426e-18
-5.36308e-18
-5.36259e-18
-5.36269e-18
-5.36275e-18
-5.36274e-18
-4.86821e-32
1.09228e-31
5.62923e-31
4.62814e-31
-2.72184e-30
-8.84101e-30
-1.59113e-30
5.22756e-29
1.22905e-28
-5.27462e-29
-8.53647e-28
-1.55043e-27
1.57676e-27
1.23423e-26
1.82979e-26
-2.7963e-26
-1.61677e-25
-2.09736e-25
3.83322e-25
1.94328e-24
2.41567e-24
-4.26172e-24
-2.14862e-23
-2.82231e-23
3.73496e-23
2.16332e-22
3.25836e-22
-2.17133e-22
-1.92951e-21
-3.5368e-21
-9.15714e-23
1.43936e-20
3.40664e-20
2.29702e-20
-7.80885e-20
-2.71976e-19
-3.5507e-19
1.43862e-19
1.60651e-18
3.3495e-18
2.59505e-18
-4.8514e-18
-2.01276e-17
-3.34821e-17
-1.94567e-17
5.29178e-17
1.85928e-16
3.04815e-16
2.35046e-16
-2.37129e-16
-1.18982e-15
-2.32939e-15
-2.85028e-15
-1.58648e-15
2.45862e-15
9.36865e-15
1.77777e-14
2.50125e-14
2.80965e-14
2.52693e-14
1.72169e-14
7.18866e-15
-2.87722e-16
-1.55664e-15
4.28196e-15
1.48287e-14
2.5522e-14
3.18394e-14
3.13616e-14
2.46431e-14
1.45757e-14
4.77152e-15
-2.07152e-15
-5.0316e-15
-4.82332e-15
-2.98936e-15
-9.98467e-16
3.02362e-16
7.55205e-16
6.31937e-16
3.03578e-16
2.45062e-17
-1.19666e-16
-1.56077e-16
-1.44502e-16
-1.27365e-16
-1.1928e-16
-1.18416e-16
-1.19626e-16
-1.20334e-16
-1.20387e-16
-1.20278e-16
-1.20237e-16
-1.20245e-16
-1.20253e-16
-1.20253e-16
-1.20252e-16
-1.20252e-16
-1.20252e-16
-1.20252e-16
5.91891e-32
2.99472e-31
4.60154e-32
-1.89956e-30
-4.43813e-30
2.71089e-30
3.44772e-29
5.85079e-29
-8.64541e-29
-5.5087e-28
-6.96668e-28
1.73889e-27
7.97076e-27
7.76832e-27
-2.79631e-26
-1.06498e-25
-8.62936e-26
3.82495e-25
1.33052e-24
1.02658e-24
-4.52272e-24
-1.56038e-23
-1.33842e-23
4.56318e-23
1.70493e-22
1.80868e-22
-3.71135e-22
-1.69812e-21
-2.33129e-21
1.98088e-21
1.4793e-20
2.67953e-20
2.32595e-21
-1.04053e-19
-2.59759e-19
-2.17971e-19
4.73749e-19
1.97702e-18
3.07259e-18
3.54116e-19
-1.00523e-17
-2.60477e-17
-3.02846e-17
1.15307e-17
1.27489e-16
2.82365e-16
3.12051e-16
-7.28251e-17
-1.11094e-15
-2.60543e-15
-3.48478e-15
-1.70908e-15
4.97776e-15
1.72178e-14
3.15994e-14
3.89218e-14
2.48708e-14
-2.58182e-14
-1.22354e-13
-2.60752e-13
-4.20409e-13
-5.67338e-13
-6.64139e-13
-6.83197e-13
-6.1741e-13
-4.83392e-13
-3.15487e-13
-1.53279e-13
-2.82353e-14
4.49208e-14
6.92429e-14
5.99705e-14
3.59892e-14
1.24904e-14
-2.59912e-15
-8.21788e-15
-7.37276e-15
-4.00394e-15
-9.39424e-16
6.90387e-16
1.01563e-15
6.66361e-16
2.00775e-16
-1.11156e-16
-2.40506e-16
-2.61993e-16
-2.49325e-16
-2.38359e-16
-2.3533e-16
-2.35961e-16
-2.36731e-16
-2.36885e-16
-2.36805e-16
-2.36762e-16
-2.36765e-16
-2.36771e-16
-2.36772e-16
-2.36771e-16
-2.36771e-16
-2.36771e-16
3.95915e-31
7.55212e-32
-2.9495e-30
-6.74592e-30
4.85783e-30
5.39826e-29
8.55517e-29
-1.52874e-28
-8.59331e-28
-9.436e-28
3.07324e-27
1.2289e-26
9.24958e-27
-4.95726e-26
-1.61677e-25
-8.62937e-26
6.83873e-25
1.99207e-24
8.95119e-25
-8.24326e-24
-2.32117e-23
-1.17796e-23
8.65926e-23
2.55135e-22
1.78849e-22
-7.68656e-22
-2.59792e-21
-2.62303e-21
5.24784e-21
2.36217e-20
3.36237e-20
-1.80762e-20
-1.79623e-19
-3.57766e-19
-1.5835e-19
9.87403e-19
2.98894e-18
3.65163e-18
-1.83006e-18
-1.73878e-17
-3.66358e-17
-3.20973e-17
4.13335e-17
2.07689e-16
3.91811e-16
3.46451e-16
-3.09318e-16
-1.81939e-15
-3.77193e-15
-4.56352e-15
-1.36226e-15
8.82052e-15
2.66777e-14
4.73155e-14
5.76467e-14
3.65305e-14
-4.07913e-14
-1.94102e-13
-4.27916e-13
-7.23685e-13
-1.03879e-12
-1.31445e-12
-1.49122e-12
-1.52691e-12
-1.41052e-12
-1.16642e-12
-8.47082e-13
-5.16913e-13
-2.33452e-13
-3.27411e-14
7.64403e-14
1.0876e-13
9.20118e-14
5.53082e-14
2.0313e-14
-2.23539e-15
-1.11287e-14
-1.06204e-14
-6.20012e-15
-1.87659e-15
6.32126e-16
1.36114e-15
1.09848e-15
5.96516e-16
2.43908e-16
1.02945e-16
8.75562e-17
1.07458e-16
1.20805e-16
1.23222e-16
1.21783e-16
1.20848e-16
1.20805e-16
1.20945e-16
1.20981e-16
1.20967e-16
1.2096e-16
1.20961e-16
1.20962e-16
1.20962e-16
5.61276e-31
-1.46355e-30
-6.83575e-30
-4.72026e-30
3.4987e-29
1.05764e-28
3.65468e-30
-6.58875e-28
-1.44893e-27
8.8082e-28
1.06339e-26
1.80113e-26
-2.24872e-26
-1.52645e-25
-2.09736e-25
3.82495e-25
1.99206e-24
2.3838e-24
-5.1719e-24
-2.39299e-23
-2.7481e-23
5.76117e-23
2.65274e-22
3.24688e-22
-5.15515e-22
-2.68683e-21
-3.81458e-21
3.23361e-21
2.42033e-20
4.22001e-20
-3.89939e-21
-1.8353e-19
-4.1411e-19
-2.45238e-19
1.0304e-18
3.37095e-18
4.16864e-18
-2.34266e-18
-2.04381e-17
-4.08405e-17
-2.8718e-17
6.63162e-17
2.53398e-16
4.04854e-16
2.03685e-16
-7.18098e-16
-2.34758e-15
-3.70373e-15
-2.60254e-15
3.51682e-15
1.53641e-14
2.89019e-14
3.38012e-14
1.56767e-14
-3.69487e-14
-1.23227e-13
-2.23592e-13
-3.02331e-13
-3.21244e-13
-2.59581e-13
-1.29725e-13
2.19967e-14
1.32936e-13
1.52933e-13
6.9418e-14
-8.52579e-14
-2.48792e-13
-3.58179e-13
-3.7753e-13
-3.10465e-13
-1.92666e-13
-7.11365e-14
1.74134e-14
5.85829e-14
5.93683e-14
3.82922e-14
1.3866e-14
-2.73939e-15
-8.96519e-15
-7.85378e-15
-3.94103e-15
-4.64446e-16
1.40263e-15
1.92364e-15
1.81654e-15
1.6145e-15
1.51333e-15
1.50005e-15
1.51394e-15
1.52267e-15
1.5235e-15
1.52223e-15
1.52171e-15
1.5218e-15
1.52189e-15
1.52189e-15
1.52188e-15
1.52188e-15
1.52188e-15
1.52188e-15
-8.34122e-31
-3.76115e-30
1.26309e-31
2.52983e-29
5.41299e-29
-4.66546e-29
-4.49059e-28
-6.89676e-28
1.27886e-27
7.05067e-27
7.87817e-27
-2.44529e-26
-1.00612e-25
-8.37995e-26
3.83323e-25
1.33052e-24
8.95117e-25
-5.17191e-24
-1.65176e-23
-1.05854e-23
6.08345e-23
1.93294e-22
1.42578e-22
-6.16169e-22
-2.1158e-21
-2.01626e-21
5.11069e-21
2.11872e-20
2.69998e-20
-2.93769e-20
-1.86278e-19
-3.19021e-19
1.23776e-20
1.33156e-18
3.15637e-18
2.40035e-18
-6.32657e-18
-2.44581e-17
-3.63715e-17
-6.05887e-19
1.27543e-16
3.17162e-16
3.52598e-16
-1.77995e-16
-1.59177e-15
-3.42092e-15
-3.64795e-15
1.19379e-15
1.384e-14
3.16603e-14
4.14969e-14
1.87865e-14
-6.31253e-14
-2.10902e-13
-3.82179e-13
-4.65358e-13
-2.88443e-13
3.30606e-13
1.50009e-12
3.16985e-12
5.09125e-12
6.85662e-12
8.01849e-12
8.24698e-12
7.45737e-12
5.84815e-12
3.82986e-12
1.87635e-12
3.65476e-13
-5.24225e-13
-8.26789e-13
-7.2291e-13
-4.38363e-13
-1.56091e-13
2.72185e-14
9.71795e-14
8.88027e-14
4.90725e-14
1.2195e-14
-7.7981e-15
-1.21019e-14
-8.12487e-15
-2.58392e-15
1.19508e-15
2.79284e-15
3.07593e-15
2.93013e-15
2.79674e-15
2.7582e-15
2.76511e-15
2.77448e-15
2.77651e-15
2.77557e-15
2.77503e-15
2.77506e-15
2.77514e-15
2.77514e-15
2.77514e-15
2.77513e-15
2.77514e-15
-4.76449e-30
-9.11251e-31
3.54909e-29
8.11613e-29
-5.85327e-29
-6.49587e-28
-1.02845e-27
1.8424e-27
1.03384e-26
1.13244e-26
-3.70397e-26
-1.47787e-25
-1.10646e-25
5.97483e-25
1.94329e-24
1.02658e-24
-8.24327e-24
-2.39299e-23
-1.05855e-23
9.93912e-23
2.78695e-22
1.39128e-22
-1.04482e-21
-3.06256e-21
-2.11873e-21
9.29045e-21
3.11892e-20
3.11825e-20
-6.37193e-20
-2.83802e-19
-4.00834e-19
2.24699e-19
2.16209e-18
4.275e-18
1.82836e-18
-1.19455e-17
-3.58067e-17
-4.32841e-17
2.30317e-17
2.09226e-16
4.37016e-16
3.76577e-16
-5.08009e-16
-2.49213e-15
-4.66014e-15
-4.05285e-15
3.84076e-15
2.18268e-14
4.4846e-14
5.37098e-14
1.48717e-14
-1.06624e-13
-3.18009e-13
-5.60136e-13
-6.77427e-13
-4.20537e-13
5.00525e-13
2.31519e-12
5.07229e-12
8.55038e-12
1.22478e-11
1.54765e-11
1.75429e-11
1.79561e-11
1.65894e-11
1.37277e-11
9.98335e-12
6.10833e-12
2.77586e-12
4.09657e-13
-8.84239e-13
-1.27441e-12
-1.0846e-12
-6.55996e-13
-2.44077e-13
2.31918e-14
1.29978e-13
1.2538e-13
7.38167e-14
2.27676e-14
-7.13259e-15
-1.60174e-14
-1.3074e-14
-7.19521e-15
-3.02561e-15
-1.34521e-15
-1.15514e-15
-1.38895e-15
-1.54766e-15
-1.57691e-15
-1.55999e-15
-1.54885e-15
-1.5483e-15
-1.54996e-15
-1.55039e-15
-1.55022e-15
-1.55014e-15
-1.55016e-15
-1.55017e-15
-1.55017e-15
-6.43559e-30
1.74654e-29
7.95415e-29
5.22211e-29
-4.12685e-28
-1.22588e-27
3.30643e-31
7.72741e-27
1.67418e-26
-1.08305e-26
-1.24296e-25
-2.07647e-25
2.68554e-25
1.78061e-24
2.41567e-24
-4.52272e-24
-2.32117e-23
-2.7481e-23
6.08345e-23
2.78695e-22
3.17709e-22
-6.75213e-22
-3.08886e-21
-3.76765e-21
6.02011e-21
3.1276e-20
4.43992e-20
-3.75091e-20
-2.81468e-19
-4.91934e-19
4.10617e-20
2.12884e-18
4.82614e-18
2.91326e-18
-1.18659e-17
-3.919e-17
-4.90115e-17
2.57493e-17
2.36047e-16
4.77007e-16
3.4624e-16
-7.46909e-16
-2.9302e-15
-4.75597e-15
-2.55646e-15
8.02356e-15
2.7082e-14
4.35921e-14
3.23639e-14
-3.69644e-14
-1.74655e-13
-3.37152e-13
-4.07546e-13
-2.18096e-13
3.73206e-13
1.376e-12
2.59133e-12
3.63296e-12
4.07231e-12
3.65655e-12
2.48494e-12
1.02551e-12
-6.91782e-14
-2.70507e-13
5.5543e-13
2.06828e-12
3.61465e-12
4.54279e-12
4.49924e-12
3.55613e-12
2.12282e-12
7.16145e-13
-2.74123e-13
-7.10631e-13
-6.90991e-13
-4.33734e-13
-1.49391e-13
3.89119e-14
1.06442e-13
9.07246e-14
4.44782e-14
4.42169e-15
-1.66686e-14
-2.2292e-14
-2.08625e-14
-1.84811e-14
-1.7322e-14
-1.71829e-14
-1.73486e-14
-1.74493e-14
-1.74579e-14
-1.74429e-14
-1.7437e-14
-1.7438e-14
-1.74391e-14
-1.74392e-14
-1.7439e-14
-1.7439e-14
-1.7439e-14
-1.7439e-14
9.31294e-30
4.51223e-29
3.8904e-30
-2.9148e-28
-6.58077e-28
4.61622e-28
5.2207e-27
8.51758e-27
-1.37416e-26
-8.2418e-26
-9.9275e-26
2.6932e-25
1.17945e-24
1.08152e-24
-4.26172e-24
-1.56038e-23
-1.17796e-23
5.76118e-23
1.93294e-22
1.39128e-22
-6.75213e-22
-2.25098e-21
-1.82591e-21
6.77237e-21
2.44537e-20
2.4946e-20
-5.50233e-20
-2.42372e-19
-3.24037e-19
2.98483e-19
2.10221e-18
3.73573e-18
1.94917e-19
-1.47324e-17
-3.61875e-17
-2.96439e-17
6.70662e-17
2.74458e-16
4.22259e-16
4.2824e-17
-1.38769e-15
-3.56942e-15
-4.12959e-15
1.5795e-15
1.73231e-14
3.82922e-14
4.23648e-14
-9.28496e-15
-1.48576e-13
-3.49277e-13
-4.68897e-13
-2.3661e-13
6.47024e-13
2.26884e-12
4.18279e-12
5.18349e-12
3.39662e-12
-3.17455e-12
-1.57329e-11
-3.37566e-11
-5.45551e-11
-7.36943e-11
-8.62988e-11
-8.87719e-11
-8.01917e-11
-6.27267e-11
-4.08549e-11
-1.97361e-11
-3.47136e-12
6.0213e-12
9.14299e-12
7.88544e-12
4.71695e-12
1.62347e-12
-3.59171e-13
-1.09414e-12
-9.7808e-13
-5.30222e-13
-1.23531e-13
9.27249e-14
1.3577e-13
8.91143e-14
2.69115e-14
-1.48484e-14
-3.22302e-14
-3.51588e-14
-3.34805e-14
-3.20103e-14
-3.15998e-14
-3.16826e-14
-3.17858e-14
-3.1807e-14
-3.17963e-14
-3.17904e-14
-3.17908e-14
-3.17917e-14
-3.17918e-14
-3.17917e-14
-3.17917e-14
-3.17917e-14
5.25505e-29
1.70088e-29
-3.79696e-28
-9.16248e-28
5.22706e-28
7.03507e-27
1.18469e-26
-1.84084e-26
-1.1297e-25
-1.34254e-25
3.81621e-25
1.62601e-24
1.36813e-24
-6.2393e-24
-2.14862e-23
-1.33842e-23
8.65927e-23
2.65274e-22
1.42578e-22
-1.04482e-21
-3.08886e-21
-1.82591e-21
1.09327e-20
3.38327e-20
2.62971e-20
-9.59733e-20
-3.42372e-19
-3.69295e-19
6.36577e-19
3.08514e-18
4.59594e-18
-1.87992e-18
-2.31478e-17
-4.7885e-17
-2.4641e-17
1.23906e-16
3.92962e-16
5.01487e-16
-1.89061e-16
-2.23563e-15
-4.86905e-15
-4.51399e-15
4.88722e-15
2.68966e-14
5.21935e-14
4.84444e-14
-3.55393e-14
-2.34803e-13
-4.99222e-13
-6.19934e-13
-2.19687e-13
1.1098e-12
3.48321e-12
6.2779e-12
7.77319e-12
5.15226e-12
-4.91646e-12
-2.5128e-11
-5.61447e-11
-9.55261e-11
-1.37572e-10
-1.74384e-10
-1.97958e-10
-2.02622e-10
-1.86922e-10
-1.54184e-10
-1.11502e-10
-6.75385e-11
-2.99795e-11
-3.57612e-12
1.05966e-11
1.4588e-11
1.21595e-11
7.19739e-12
2.55455e-12
-3.87912e-13
-1.51141e-12
-1.40509e-12
-8.03147e-13
-2.30933e-13
9.35825e-14
1.8241e-13
1.43013e-13
7.48942e-14
2.8142e-14
9.82e-15
8.00471e-15
1.06906e-14
1.24387e-14
1.27406e-14
1.25465e-14
1.24247e-14
1.24202e-14
1.24388e-14
1.24433e-14
1.24414e-14
1.24405e-14
1.24407e-14
1.24408e-14
1.24408e-14
7.41059e-29
-1.83564e-28
-8.86325e-28
-6.57489e-28
4.43109e-27
1.37939e-26
1.39859e-27
-8.38476e-26
-1.90481e-25
9.76269e-26
1.35758e-24
2.39303e-24
-2.64793e-24
-1.95301e-23
-2.82231e-23
4.56318e-23
2.55136e-22
3.24688e-22
-6.16169e-22
-3.06256e-21
-3.76765e-21
6.77236e-21
3.38327e-20
4.4393e-20
-5.85339e-20
-3.40107e-19
-5.15692e-19
3.29003e-19
3.02142e-18
5.60919e-18
3.57277e-19
-2.23203e-17
-5.3878e-17
-3.85704e-17
1.17811e-16
4.26178e-16
5.7727e-16
-1.6989e-16
-2.46003e-15
-5.32868e-15
-4.50972e-15
6.74849e-15
3.09851e-14
5.41766e-14
3.70034e-14
-7.17423e-14
-2.84091e-13
-4.95634e-13
-4.39455e-13
2.39386e-13
1.73057e-12
3.68638e-12
4.9492e-12
3.67449e-12
-1.98321e-12
-1.2797e-11
-2.75622e-11
-4.30359e-11
-5.50579e-11
-6.04843e-11
-5.89223e-11
-5.31565e-11
-4.78068e-11
-4.68243e-11
-5.12245e-11