/*--------------------------------*- C++ -*----------------------------------*\
  =========                 |
  \\      /  F ield         | OpenFOAM: The Open Source CFD Toolbox
   \\    /   O peration     | Website:  https://openfoam.org
    \\  /    A nd           | Version:  13
     \\/     M anipulation  |
\*---------------------------------------------------------------------------*/
FoamFile
{
    format      ascii;
    class       volScalarField;
    location    "0.8";
    object      T;
}
// * * * * * * * * * * * * * * * * * * * * * * * * * * * * * * * * * * * * * //

dimensions      [0 0 0 1 0 0 0];

internalField   nonuniform List<scalar> 
10000
(
0
0
0
0
0
0
0
0
0
0
0
0
0
0
0
0
0
0
0
0
0
0
0
0
0
0
0
0
0
0
0
0
0
0
0
0
0
0
0
0
0
0
0
0
0
0
0
0
0
0
0
0
0
0
0
0
0
0
0
0
0
0
0
0
0
0
0
0
0
0
0
0
0
0
0
0
0
0
0
0
0
0
0
0
0
0
0
0
0
0
0
0
0
0
0
0
0
0
0
0
0
0
0
0
0
0
0
0
0
0
0
0
0
0
0
0
0
0
0
0
0
0
0
0
0
0
0
0
0
0
0
0
0
0
0
0
0
0
0
0
0
0
0
0
0
0
0
0
0
0
0
0
0
0
0
0
0
0
0
0
0
0
0
0
0
0
0
0
0
0
0
0
0
0
0
0
0
0
0
0
0
0
0
0
0
0
0
0
0
0
0
0
0
0
0
0
0
0
0
0
0
0
0
0
0
0
0
0
0
0
0
0
0
0
0
0
0
0
0
0
0
0
0
0
0
0
0
0
0
0
0
0
0
0
0
0
0
0
0
0
0
0
0
0
0
0
0
0
0
0
0
0
0
0
0
0
0
0
0
0
0
0
0
0
0
0
0
0
0
0
0
0
0
0
0
0
0
0
0
0
0
0
0
0
0
0
0
0
0
0
0
0
0
0
0
0
0
0
0
0
0
0
0
0
0
0
0
0
0
0
0
0
0
0
0
0
0
0
0
0
0
0
0
0
0
0
0
0
0
0
0
0
0
0
0
0
0
0
0
0
0
0
0
0
0
0
0
0
0
0
0
0
0
0
0
0
0
0
0
0
0
0
0
0
0
0
0
0
0
0
0
0
0
0
0
0
0
0
0
0
0
0
0
0
0
0
0
0
0
0
0
0
0
0
0
0
0
0
0
0
0
0
0
0
0
0
0
0
0
0
0
0
0
0
0
0
0
0
0
0
0
0
0
0
0
0
0
0
0
0
0
0
0
0
0
0
0
0
0
0
0
0
0
0
0
0
0
0
0
0
0
0
0
0
0
0
0
0
0
0
0
0
0
0
0
0
0
0
0
0
0
0
0
0
0
0
0
0
0
0
0
0
0
0
0
0
0
0
0
0
0
0
0
0
0
0
0
0
0
0
0
0
0
0
0
0
0
0
0
0
0
0
0
0
0
0
0
0
0
0
0
0
0
0
0
0
0
0
0
0
0
0
0
0
0
0
0
0
0
0
0
0
0
0
0
0
0
0
0
0
0
0
0
0
0
0
0
0
0
0
0
0
0
0
0
0
0
0
0
0
0
0
0
0
0
0
0
0
0
0
0
0
0
0
0
0
0
0
0
0
0
0
0
0
0
0
0
0
0
0
0
0
0
0
0
0
0
0
0
0
0
0
0
0
0
0
0
0
0
0
0
0
0
0
0
0
0
0
0
0
0
0
0
0
0
0
0
0
0
0
0
0
0
0
0
0
0
0
0
0
0
0
0
0
0
0
0
0
0
0
0
0
0
0
0
0
0
0
0
0
0
0
0
0
0
0
0
0
0
0
0
0
0
0
0
0
0
0
0
0
0
0
0
0
0
0
0
0
0
0
0
0
0
0
0
0
0
0
0
0
0
0
0
0
0
0
0
0
0
0
0
0
0
0
0
0
0
0
0
0
0
0
0
0
0
0
0
0
0
0
0
0
0
0
0
0
0
0
0
0
0
0
0
0
0
0
0
0
0
0
0
0
0
0
0
0
0
0
0
0
0
0
0
0
0
0
0
0
0
0
0
0
0
0
0
0
0
0
0
0
0
0
0
0
0
0
0
0
0
0
0
0
0
0
0
0
0
0
0
0
0
0
0
0
0
0
0
0
0
0
0
0
0
0
0
0
0
0
0
0
0
0
0
0
0
0
0
0
0
0
0
0
0
0
0
0
0
0
0
0
0
0
0
0
0
0
0
0
0
0
0
0
0
0
0
0
0
0
0
0
0
0
0
0
0
0
0
0
0
0
0
0
0
0
0
0
0
0
0
0
0
0
0
0
0
0
0
0
0
0
0
0
0
0
0
0
0
0
0
0
0
0
0
0
0
0
0
0
0
0
0
0
0
0
0
0
0
0
0
0
0
0
0
0
0
0
0
0
0
0
0
0
0
0
0
0
0
0
0
0
0
0
0
0
0
0
0
0
0
0
0
0
0
0
0
0
0
0
0
0
0
0
0
0
0
0
0
0
0
0
0
0
0
0
0
0
0
0
0
0
0
0
0
0
0
0
0
0
0
0
0
0
0
0
0
0
0
0
0
0
0
0
0
0
0
0
0
0
0
0
0
0
0
0
0
0
0
0
0
0
0
0
0
0
0
0
0
0
0
0
0
0
0
0
0
0
0
0
0
0
0
0
0
0
0
0
0
0
0
0
0
0
0
0
0
0
0
0
0
0
0
0
0
0
0
0
0
0
0
0
0
0
0
0
0
0
0
0
0
0
0
0
0
0
0
0
0
0
0
0
0
0
0
0
0
0
0
0
0
0
0
0
0
0
0
0
0
0
0
0
0
0
0
0
0
0
0
0
0
0
0
0
0
0
0
0
0
0
0
0
0
0
0
0
0
0
0
0
0
0
0
0
0
0
0
0
0
0
0
0
0
0
0
0
0
0
0
0
0
0
0
0
0
0
0
0
0
0
0
0
0
0
0
0
0
0
0
0
0
0
0
0
0
0
0
0
0
0
0
0
0
0
0
0
0
0
0
0
0
0
0
0
0
0
0
0
0
0
0
0
0
0
0
0
0
0
0
0
0
0
0
0
0
0
0
0
0
0
0
0
0
0
0
0
0
0
0
0
0
0
0
0
0
0
0
0
0
0
0
0
0
0
0
0
0
0
0
0
0
0
0
0
0
0
0
0
0
0
0
0
0
0
0
0
0
0
0
0
0
0
0
0
0
0
0
0
0
0
0
0
0
0
0
0
0
0
0
0
0
0
0
0
0
0
0
0
0
0
0
0
0
0
0
0
0
0
0
0
0
0
0
0
0
0
0
0
0
0
0
0
0
0
0
0
0
0
0
0
0
0
0
0
0
0
0
0
0
0
0
0
0
0
0
0
0
0
0
0
0
0
0
0
0
0
0
0
0
0
0
0
0
0
0
0
0
0
0
0
0
0
0
0
0
0
0
0
0
0
0
0
0
0
0
0
0
0
0
0
0
0
0
0
0
0
0
0
0
0
0
0
0
0
0
0
0
0
0
0
0
0
0
0
0
0
0
0
0
0
0
0
0
0
0
0
0
0
0
0
0
0
0
0
0
0
0
0
0
0
0
0
0
0
0
0
0
0
0
0
0
0
0
0
0
0
0
0
0
0
0
0
0
0
0
0
0
0
0
0
0
0
0
0
0
0
0
0
0
0
0
0
0
0
0
0
0
0
0
0
0
0
0
0
0
0
0
0
0
0
0
0
0
0
0
0
0
0
0
0
0
0
0
0
0
0
0
0
0
0
0
0
0
0
0
0
0
0
0
0
0
0
0
0
0
0
0
0
0
0
0
0
0
0
0
0
0
0
0
0
0
0
0
0
0
0
0
0
0
0
0
0
0
0
0
0
0
0
0
0
0
0
0
0
0
0
0
0
0
0
0
0
0
0
0
0
0
0
0
0
0
0
0
0
0
0
0
0
0
0
0
0
0
0
0
0
0
0
0
0
0
0
0
0
0
0
0
0
0
0
0
0
0
0
0
0
0
0
0
0
0
0
0
0
0
0
0
0
0
0
0
0
0
0
0
0
0
0
0
0
0
0
0
0
0
0
0
0
0
0
0
0
0
0
0
0
0
0
0
0
0
0
0
0
0
0
0
0
0
0
0
0
0
0
0
0
0
0
0
0
0
0
0
0
0
0
0
0
0
0
0
0
0
0
0
0
0
0
0
0
0
0
0
0
0
0
0
0
0
0
0
0
0
0
0
0
0
0
0
0
0
0
0
0
0
0
0
0
0
0
0
0
0
0
0
0
0
0
0
0
0
0
0
0
0
0
0
0
0
0
0
0
0
0
0
0
0
0
0
0
0
0
0
0
0
0
0
0
0
0
0
0
0
0
0
0
0
0
0
0
0
0
0
0
0
0
0
0
0
0
0
0
0
0
0
0
0
0
0
0
0
0
0
0
0
0
0
0
0
0
0
0
0
0
0
0
0
0
0
0
0
0
0
0
0
0
0
0
0
0
0
0
0
0
0
0
0
0
0
0
0
0
0
0
0
0
0
0
0
0
0
0
0
0
0
0
0
0
0
0
0
0
0
0
0
0
0
0
0
0
0
0
0
0
0
0
0
0
0
0
0
0
0
0
0
0
0
0
0
0
0
0
0
0
0
0
0
0
0
0
0
0
0
0
0
0
0
0
0
0
0
0
0
0
0
0
0
0
0
0
0
0
0
0
0
0
0
0
0
0
0
0
0
0
0
0
0
0
0
0
0
0
0
0
0
0
0
0
0
0
0
0
0
0
0
0
0
0
0
0
0
0
0
0
0
0
0
0
0
0
0
0
0
0
0
0
0
0
0
0
0
0
0
0
0
0
0
0
0
0
0
0
0
0
0
0
0
0
0
0
0
0
0
0
0
0
0
0
0
0
0
0
0
0
0
0
0
0
0
0
0
0
0
0
0
0
0
0
0
0
0
0
0
0
0
0
0
0
0
0
0
0
0
0
0
0
0
0
0
0
0
0
0
0
0
0
0
0
0
0
0
0
0
0
0
0
0
0
0
0
0
0
0
0
0
0
0
0
0
0
0
0
0
0
0
0
0
0
0
0
0
0
0
0
0
0
0
0
0
0
0
0
0
0
0
0
0
0
0
0
0
0
0
0
0
0
0
0
0
0
0
0
0
0
0
0
0
0
0
0
0
0
0
0
0
0
0
0
0
0
0
0
0
0
0
0
0
0
0
0
0
0
0
0
0
0
0
0
0
0
0
0
0
0
0
0
0
0
0
0
0
0
0
0
0
0
0
0
0
0
0
0
0
0
0
0
0
0
0
0
0
0
0
0
0
0
0
0
0
0
0
0
0
0
0
0
0
0
0
0
0
0
0
0
0
0
0
0
0
0
0
0
0
0
0
0
0
0
0
0
0
0
0
0
0
0
0
0
0
0
0
0
0
0
0
0
0
0
0
0
0
0
0
0
0
0
0
0
0
0
0
0
0
0
0
0
0
0
0
0
0
0
0
0
0
0
0
0
0
0
0
0
0
0
0
0
0
0
0
0
0
0
0
0
0
0
0
0
0
0
0
0
0
0
0
0
0
0
0
0
0
0
0
0
0
0
0
0
0
0
0
0
0
0
0
0
0
0
0
0
0
0
0
0
0
0
0
0
0
0
0
0
0
0
0
0
0
0
0
0
0
0
0
0
0
0
0
0
0
0
0
0
0
0
0
0
0
0
0
0
0
0
0
0
0
0
0
0
0
0
0
0
0
0
0
0
0
0
0
0
0
0
0
0
0
0
0
0
0
0
0
0
0
0
0
0
0
0
0
0
0
0
0
0
0
0
0
0
0
2.30235e-321
-2.15413e-321
0
-1.00938e-320
1.16516e-319
-9.81017e-319
3.37852e-319
6.72967e-320
3.66547e-319
7.77215e-320
9.61205e-320
-9.50637e-319
9.51882e-319
1.39651e-318
-1.12266e-318
-3.7757e-319
-4.15509e-321
3.2134e-320
-2.6309e-320
1.71139e-319
9.82203e-321
-1.04035e-319
-4.58246e-320
-6.2944e-321
3.20155e-321
2.49009e-321
5.68175e-322
1.33398e-322
-7.01573e-322
-4.64422e-322
8.10268e-322
0
0
0
0
0
0
0
0
0
0
0
0
0
0
0
0
0
0
0
0
0
0
0
0
0
0
0
0
0
0
0
0
0
0
0
0
0
0
0
0
0
0
0
0
0
0
0
0
0
0
-8.81413e-321
1.36496e-319
-1.57403e-318
9.8021e-318
-1.68859e-316
9.11742e-316
7.41812e-315
-2.53614e-313
1.95584e-312
-2.87175e-311
3.29019e-311
-2.15045e-310
1.68967e-311
1.38699e-310
1.11667e-310
-8.58153e-310
1.00549e-308
-2.88742e-308
-1.9996e-307
9.27981e-306
-2.07658e-304
3.62582e-303
-1.72355e-302
1.64469e-302
-2.7744e-304
-1.75521e-303
-6.13314e-304
-1.10903e-304
-9.24922e-305
2.49558e-304
-1.09383e-303
4.67059e-304
2.50614e-303
-1.95945e-303
6.79945e-303
-3.6906e-303
-9.16424e-304
-2.20321e-303
-2.69836e-304
4.40977e-304
-4.24254e-305
-1.08392e-304
5.65305e-306
1.7661e-305
1.81065e-305
-1.14802e-305
-2.68975e-306
1.50973e-306
2.15153e-306
9.11822e-307
1.50548e-307
-8.91277e-308
-7.38991e-308
-1.7815e-308
3.81842e-309
2.56276e-309
5.21092e-310
-2.84383e-311
-2.55636e-310
-1.74373e-311
1.9046e-311
6.80008e-312
-2.29814e-312
-1.58854e-312
-1.18167e-313
8.40324e-314
2.75238e-314
1.45324e-315
-2.42539e-315
2.60434e-315
-3.57927e-315
5.50342e-316
0
0
0
0
0
0
0
0
0
0
0
0
0
0
0
3.90312e-322
4.05134e-322
-2.12893e-320
6.73041e-319
-1.98215e-317
5.5147e-316
-1.31369e-314
2.74616e-313
-5.46576e-312
1.04112e-310
-1.88422e-309
3.94005e-308
-4.86723e-307
6.27738e-306
-1.20037e-304
1.09518e-303
-1.94007e-302
2.42568e-301
-2.50868e-300
1.36064e-299
2.44776e-298
-4.05659e-297
4.43203e-296
-3.21067e-295
1.69891e-295
1.97724e-295
-1.59426e-294
2.28426e-293
-1.34329e-293
-7.4537e-294
-8.13673e-294
3.63813e-292
-1.58188e-290
2.79546e-289
-4.14457e-288
2.09986e-287
-1.0045e-287
-5.97021e-288
-1.33124e-288
6.44999e-290
1.18262e-289
2.60202e-289
-2.42022e-288
1.12318e-288
9.80957e-289
-1.64087e-288
2.35173e-287
-6.47247e-288
-1.21086e-287
-3.51311e-288
-4.1335e-290
3.20593e-289
-3.76286e-289
2.95602e-289
1.10297e-289
1.36337e-290
-8.63495e-292
-1.65904e-290
8.31827e-291
4.56975e-291
1.31355e-291
3.66412e-292
-1.28952e-292
-1.65923e-292
-6.3195e-293
-3.47346e-294
3.69562e-294
1.65493e-294
1.62055e-295
-1.65042e-295
-1.42387e-295
6.89884e-296
4.84088e-297
-2.72089e-297
-5.03732e-297
-9.19354e-298
1.41567e-298
9.88354e-299
1.36803e-299
-3.4311e-300
-1.6781e-300
1.83165e-301
-6.21191e-300
2.44937e-300
2.9265e-300
0
0
0
8.1175e-321
-1.45147e-319
4.45637e-318
-1.37259e-316
1.88463e-315
-5.42568e-314
7.97006e-313
-2.22792e-311
2.62907e-310
-6.9984e-309
1.90707e-307
-2.46811e-307
2.63105e-306
-1.54879e-306
-1.3789e-305
3.17501e-304
-7.4332e-303
1.70485e-301
3.38867e-300
-8.25548e-299
1.82727e-297
-3.94655e-296
8.30326e-295
-1.81187e-293
3.62459e-292
-7.04025e-291
1.32958e-289
-2.43882e-288
1.19647e-287
-1.85614e-286
3.1328e-285
-5.10423e-284
8.03656e-283
1.73842e-282
-3.34964e-281
4.48851e-280
-2.05827e-281
-4.63704e-280
2.37044e-279
-3.35217e-278
4.37291e-277
-2.46064e-277
-9.42308e-278
-8.4566e-277
1.18789e-275
-1.73724e-274
1.85327e-273
-1.18745e-272
2.43071e-272
1.84456e-271
-6.91881e-272
-8.64651e-272
-3.87457e-272
-7.48759e-273
2.12987e-273
-6.01763e-273
7.02161e-272
-2.73622e-272
-2.65856e-272
-9.86573e-273
6.5684e-273
-3.29498e-273
-2.90239e-273
-7.86575e-274
7.68267e-274
3.66609e-274
2.94661e-275
-1.77568e-275
3.62658e-275
1.93407e-275
5.35629e-276
4.65782e-277
1.16559e-277
-3.62149e-277
-1.58376e-277
-2.75225e-278
3.72911e-279
3.29945e-279
1.06161e-279
-1.26e-280
-1.46765e-280
-3.60787e-281
8.20456e-281
-3.49082e-281
-2.57615e-281
-6.11531e-282
1.47519e-283
5.65251e-283
-1.3238e-282
1.13711e-282
2.78855e-283
-5.34508e-285
-1.37049e-284
-1.78643e-284
1.16296e-284
4.38122e-285
1.9101e-286
8.61862e-310
-2.36677e-308
6.11387e-307
-1.66823e-305
4.3943e-304
-1.09875e-302
2.55816e-301
-5.32956e-300
8.91262e-299
-2.50936e-297
4.12928e-296
-1.12104e-294
3.05205e-293
-5.46216e-292
7.30024e-291
-7.65377e-291
5.67303e-290
-1.45566e-288
3.23876e-290
4.62211e-287
-8.12837e-286
1.79578e-284
-3.92318e-283
5.74569e-282
-6.29871e-281
1.25832e-280
-1.78519e-279
-3.92861e-277
7.64136e-276
-1.3808e-274
3.53937e-273
-6.16466e-272
1.37336e-270
-1.90186e-269
1.71681e-268
-1.57028e-267
2.2243e-266
-1.14691e-265
6.4519e-265
4.00716e-265
-1.04654e-263
1.33539e-262
8.33587e-262
-5.86433e-262
-3.0401e-262
-8.50871e-263
2.34415e-262
-3.46161e-261
4.46577e-260
-5.05626e-259
4.92429e-258
-3.87355e-257
9.9669e-257
3.42144e-256
-3.30892e-256
-1.2668e-256
1.28758e-258
1.17907e-256
3.29783e-257
-4.84436e-257
-4.05758e-257
-1.25851e-257
-2.06646e-257
7.86329e-258
1.1477e-257
3.03226e-258
-1.33129e-258
-7.83385e-259
-1.28948e-259
-1.03431e-259
5.70979e-260
2.78444e-260
2.0325e-260
2.12448e-261
-1.36032e-261
-4.38393e-262
-9.82495e-263
-4.16505e-264
1.60606e-263
8.06909e-264
1.21927e-264
-4.71802e-265
-6.36672e-264
4.86861e-264
1.23456e-264
-5.3126e-266
4.82762e-265
-5.4319e-265
-1.52588e-266
2.30453e-266
2.94022e-267
3.55662e-267
-6.3021e-268
-4.57925e-268
-1.40193e-268
2.12567e-269
2.75127e-269
7.24872e-270
-1.3513e-270
-5.94144e-271
-1.18676e-295
1.70902e-293
-2.95924e-292
9.03663e-291
-2.78017e-289
8.41071e-288
-2.50169e-286
7.31385e-285
-2.10107e-283
3.33008e-282
-9.0177e-281
2.45354e-279
-3.02933e-278
7.65157e-277
-1.96547e-275
4.9472e-274
-5.62577e-273
4.02154e-273
2.31019e-273
-2.83165e-272
6.3445e-271
-1.38738e-269
2.96432e-268
-6.18588e-267
1.26012e-265
-2.50458e-264
4.8545e-263
-9.17088e-262
7.29455e-261
-1.26551e-259
2.25902e-258
-3.919e-257
-4.01791e-256
7.04108e-255
-1.06818e-253
1.5655e-252
-2.20684e-251
8.21915e-251
-8.88031e-250
-4.92479e-249
7.54785e-248
-2.81713e-247
-1.246e-246
1.66779e-245
-2.42707e-245
5.17586e-245
-1.83335e-244
-1.86498e-243
8.01792e-244
1.03744e-243
-1.61304e-243
1.07693e-242
8.40583e-243
-5.52504e-241
3.21572e-241
2.19474e-241
1.22898e-241
-4.59767e-242
-9.77773e-243
-1.13269e-241
-7.9875e-243
1.60637e-242
2.56062e-242
8.68681e-243
-4.39711e-244
-1.29287e-243
-3.56737e-244
-1.41459e-244
-1.03728e-244
8.49776e-245
5.45385e-245
1.56355e-245
-3.87295e-246
1.82344e-246
6.51939e-247
5.17735e-248
-1.73632e-248
-1.92569e-249
1.75576e-249
3.83831e-250
-2.00655e-250
5.81203e-250
-1.51119e-248
1.09949e-248
5.5123e-249
-7.49371e-250
-1.08586e-249
-3.28592e-250
6.88967e-251
4.20623e-251
6.94313e-252
-9.05378e-253
-6.80649e-253
-1.19626e-253
2.90596e-254
1.72047e-254
2.00155e-255
-9.03489e-256
-7.26582e-257
-1.10675e-256
1.55357e-279
-2.91148e-278
6.6993e-277
-6.65976e-276
-2.25504e-274
1.6308e-272
-4.84073e-271
1.27523e-269
-2.92612e-268
8.05099e-267
-1.66962e-265
3.96359e-264
-9.18219e-263
1.75378e-261
-3.61871e-260
7.40294e-259
-1.42668e-257
2.0986e-256
-1.9083e-255
2.52171e-254
-4.191e-253
6.37629e-252
-7.81614e-251
-6.66231e-250
6.0627e-250
8.48271e-249
-9.61105e-250
-1.07889e-246
3.88086e-245
-6.18112e-244
8.89088e-243
-1.19653e-241
1.91033e-240
-9.16797e-240
1.28223e-238
7.81193e-238
-2.43656e-236
3.27379e-235
-1.72236e-234
2.09697e-234
7.606e-233
-4.76266e-232
7.38578e-232
8.8712e-231
-1.39671e-230
3.54137e-230
-3.96685e-229
-1.5092e-228
6.64778e-227
1.27138e-227
-3.6438e-226
7.06425e-226
7.52574e-227
-5.58928e-226
-4.76442e-227
-4.61406e-227
1.08095e-227
1.19194e-226
7.89706e-227
4.61897e-229
-3.06232e-227
-1.86999e-227
-3.40395e-228
4.08237e-229
1.81803e-229
5.68835e-229
2.90358e-229
1.33299e-229
-1.08118e-229
-6.12665e-230
-1.12422e-230
-1.37113e-230
-7.72537e-231
2.49597e-231
1.93715e-231
1.13226e-232
-2.6952e-232
3.90705e-232
2.70316e-232
-8.28597e-233
-5.42623e-233
-1.73143e-232
-3.20371e-233
3.16397e-234
3.49523e-234
1.01489e-234
-8.08021e-236
-1.46753e-235
-3.90691e-236
9.36268e-238
3.16195e-237
8.34225e-238
7.88488e-239
7.4567e-240
-7.3671e-239
-3.29014e-239
5.52055e-240
6.57631e-240
5.8664e-241
-6.07524e-241
-3.13097e-264
5.13195e-263
-1.54806e-261
4.67902e-260
-1.0434e-258
2.8223e-260
2.57538e-256
-7.44272e-255
2.05923e-253
-5.84803e-252
1.01267e-250
-2.60552e-249
6.68526e-248
-1.68106e-246
3.28574e-245
-7.86117e-244
1.40283e-242
-3.20679e-241
3.55078e-240
-2.85536e-239
5.80988e-238
-1.22462e-236
2.51685e-235
3.23362e-234
-2.01191e-234
-1.29549e-233
2.31385e-232
-4.29572e-231
-1.76259e-230
3.67349e-229
-6.0741e-228
9.7736e-227
-4.65358e-225
2.76165e-224
-2.03813e-223
2.7827e-222
3.85169e-221
-5.40441e-220
1.86814e-219
-1.8612e-218
-1.11867e-217
9.92296e-217
-3.2757e-216
1.88121e-215
1.28952e-215
-1.88733e-215
-1.0709e-213
1.31271e-212
-4.10937e-212
-4.32883e-212
1.55511e-211
-1.17217e-210
5.26267e-211
3.48127e-211
-1.01135e-211
1.36574e-211
2.06074e-211
5.12066e-212
-3.04952e-212
-3.75095e-212
-1.21899e-212
-8.16784e-214
-2.09075e-213
3.37238e-213
1.32411e-213
4.77843e-214
2.79783e-215
-2.18983e-214
7.89807e-216
-1.75479e-215
-1.12998e-215
-1.85851e-217
4.67266e-216
-2.75089e-217
-5.78149e-217
2.3788e-217
5.16056e-217
-1.29733e-217
-4.382e-217
-2.6592e-217
-1.39436e-217
5.85354e-218
1.66067e-218
1.42693e-220
4.64288e-220
-3.51209e-221
-8.4982e-221
1.55696e-221
6.0981e-222
8.69239e-223
-2.31354e-223
1.60615e-223
5.47247e-224
-9.46974e-224
-3.99396e-224
1.93891e-224
6.81619e-225
-1.38635e-226
-8.53396e-226
-1.01194e-226
-7.59765e-249
1.69221e-247
-3.3582e-246
7.81053e-245
-2.26372e-243
5.26585e-242
-1.13162e-240
1.21177e-239
-5.72397e-239
-1.23499e-236
5.12247e-235
-8.69027e-234
9.97099e-233
-1.92747e-231
5.92119e-230
-1.02274e-228
1.39076e-227
-2.77564e-226
1.05897e-224
-1.32239e-223
2.28654e-222
-3.92466e-221
9.32025e-220
-1.51386e-218
2.87294e-217
-3.43738e-216
2.53926e-215
-2.14038e-215
6.7018e-213
-6.37937e-213
-9.53605e-212
7.0493e-211
-9.90602e-210
-3.80312e-209
1.25378e-207
-1.72166e-206
9.25866e-206
-1.06998e-204
1.27362e-203
-7.07756e-203
-3.73052e-203
8.02185e-202
-2.49644e-201
2.13639e-200
2.05094e-200
-2.46292e-199
1.43641e-198
-4.54178e-198
-3.9041e-197
4.42346e-196
-1.26486e-195
8.45683e-196
2.74488e-196
1.51875e-196
-2.9034e-196
-1.41862e-196
-1.00527e-197
2.21844e-197
1.26137e-197
1.94702e-198
5.85813e-198
7.94811e-198
-9.27025e-198
-5.34283e-198
-1.28354e-198
9.19298e-199
-2.64717e-199
-3.64444e-199
6.12257e-200
5.78142e-200
2.31978e-202
3.73526e-201
6.24477e-201
2.23328e-201
-5.9539e-202
-2.52117e-203
1.59617e-202
-1.36973e-202
-8.2607e-203
-4.03363e-203
-1.93134e-202
-5.2737e-203
-2.86531e-203
-6.99775e-204
6.35663e-205
8.35444e-205
1.67893e-205
9.07911e-207
-2.20415e-206
3.34586e-207
-8.10123e-208
8.86843e-208
3.96591e-208
-1.9569e-209
-9.61459e-209
-2.4329e-209
1.31595e-210
1.5812e-210
1.41286e-211
-8.54841e-212
-7.43989e-234
1.94078e-232
-4.5542e-231
1.31903e-229
-2.76394e-228
7.70077e-227
-2.1296e-225
5.78046e-224
-1.53962e-222
4.02244e-221
-1.03045e-219
2.58737e-218
9.81889e-218
-2.93847e-216
-8.66905e-215
2.12108e-213
-6.67002e-213
1.00856e-210
-2.24153e-209
9.52408e-209
-1.67509e-207
-3.40253e-206
7.13647e-205
-4.12791e-205
-4.23333e-202
7.90917e-201
-8.97092e-200
1.48691e-198
-2.44545e-197
2.76594e-197
-1.83497e-196
2.82576e-195
-4.05916e-194
-1.36353e-193
2.27767e-192
-2.93115e-191
3.64486e-190
-2.93448e-189
1.65656e-188
-1.7085e-187
-2.84228e-188
1.23248e-186
-5.64452e-186
4.80571e-185
-3.92906e-184
6.69897e-184
-8.22443e-184
-6.25553e-183
1.12843e-181
-7.86833e-181
1.71148e-180
-4.51554e-181
-1.69423e-181
-2.90874e-181
-1.31779e-181
8.38593e-182
-3.54676e-182
-2.72387e-182
-3.86908e-182
1.50599e-182
2.51122e-182
-2.63113e-182
-4.31075e-183
9.57798e-183
8.8448e-183
3.01502e-183
1.75233e-184
-4.82466e-184
-2.43864e-184
-3.73195e-185
2.83061e-185
1.07924e-185
2.32397e-187
-1.29383e-186
-4.28306e-187
3.4628e-186
-4.25616e-186
2.10655e-186
-7.20146e-187
-5.17298e-187
-2.49173e-188
-9.54173e-188
2.94757e-189
6.34148e-189
1.95526e-189
9.85402e-191
2.20444e-191
2.62299e-191
2.72606e-191
-7.95219e-192
-5.05065e-192
-1.63139e-193
5.81207e-193
1.48969e-193
1.23861e-194
-4.59281e-195
-1.73625e-195
4.48179e-197
-8.79167e-198
-6.25123e-197
1.06133e-218
-2.71262e-217
7.90618e-216
-2.29228e-214
5.75338e-213
-2.0337e-211
5.55373e-210
-1.47839e-208
5.1427e-207
-9.72834e-206
3.33471e-204
-8.27193e-203
1.09301e-201
-3.50818e-200
6.10509e-199
-9.26993e-198
2.01069e-196
-2.68302e-195
8.46895e-194
-1.24858e-192
1.52363e-191
-2.90324e-190
2.95724e-189
-9.48808e-188
1.15198e-186
-1.08871e-185
1.78493e-184
-1.21097e-183
4.07339e-182
-3.67715e-181
2.0579e-180
9.69204e-180
-1.57301e-178
2.08953e-177
8.51773e-178
-2.72555e-176
3.16513e-175
-3.60422e-174
3.90891e-173
-4.02638e-172
1.26613e-171
-1.24165e-171
7.68525e-171
-6.59009e-170
4.85693e-169
-1.89301e-169
-4.49109e-169
9.47378e-168
-1.22893e-166
1.14167e-165
-1.92129e-165
-1.2601e-166
4.90994e-166
4.2326e-166
1.54086e-166
-1.70244e-166
-8.23136e-167
1.19064e-166
6.2343e-167
2.96929e-167
2.80643e-167
-1.50393e-167
-1.47024e-167
-5.97219e-168
-8.42884e-169
4.81303e-169
3.44072e-169
8.36697e-170
-1.19683e-170
-1.52513e-170
-7.50757e-171
-8.4916e-170
2.49004e-170
9.7225e-170
-1.17134e-170
-2.19176e-170
-6.37822e-171
4.44777e-171
1.41825e-171
9.9339e-173
-2.80226e-172
-1.10908e-172
-6.23823e-174
1.65962e-174
2.14409e-174
5.92328e-175
-6.46823e-176
-1.15594e-175
-2.81086e-176
-1.07101e-178
3.40222e-177
1.09862e-177
9.05859e-179
-9.87419e-179
-1.42258e-179
1.46464e-180
1.0769e-180
4.35004e-181
-2.231e-181
-7.67273e-182
6.63337e-204
-1.65229e-202
-6.11935e-202
1.58173e-199
-1.01207e-197
3.80698e-196
-1.02125e-194
2.88738e-193
-7.97328e-192
2.07503e-190
-4.67347e-189
1.0116e-187
-2.25616e-186
4.6478e-185
-9.76658e-184
1.99922e-182
-3.7104e-181
6.64676e-180
-1.15137e-178
2.10734e-177
-3.7447e-176
5.75963e-175
-9.47459e-174
1.31377e-172
-1.98161e-171
2.86024e-170
-3.88338e-169
5.09463e-168
-6.20439e-167
7.27482e-166
-8.38854e-165
8.84887e-164
-9.37153e-163
6.22712e-162
-5.30575e-161
3.85338e-160
-3.11946e-159
2.20231e-158
-1.07779e-157
5.98374e-157
-2.07323e-156
1.1406e-155
-5.85354e-155
1.75167e-154
-6.55008e-154
2.43061e-153
-2.29961e-153
-5.51075e-152
3.89775e-151
-1.4333e-150
1.59383e-150
9.57364e-151
-8.22568e-151
-7.25213e-151
-1.79979e-151
8.69488e-152
1.69587e-151
3.10577e-152
4.97801e-152
1.2212e-152
-3.54902e-152
-3.53662e-152
-2.43194e-152
5.91612e-153
1.46929e-152
7.3087e-153
-6.23561e-154
-6.25287e-153
-2.82657e-153
1.17086e-153
1.53642e-153
5.27892e-154
-5.08173e-155
-1.72345e-154
-5.4126e-155
5.62115e-156
9.9791e-156
3.08042e-156
-3.22764e-157
-4.81758e-157
-1.46264e-157
-4.2778e-160
1.44736e-158
4.54174e-159
3.45622e-160
-3.08901e-160
-1.39943e-160
-2.24486e-161
3.74366e-162
3.50157e-162
1.44628e-162
-9.56858e-163
1.94498e-163
7.48335e-164
-4.74687e-166
-4.38042e-165
-1.07564e-165
8.09777e-166
3.69178e-166
-1.5965e-167
-9.92338e-188
5.98879e-187
-1.53007e-185
4.22265e-184
-1.14289e-182
1.01923e-181
-2.49363e-180
6.37057e-179
-1.59398e-177
-4.84703e-176
1.23433e-174
-2.66164e-173
6.1119e-172
-1.50154e-170
3.31524e-169
-6.53926e-168
1.24473e-166
-2.28741e-165
4.0449e-164
-7.8383e-163
1.48617e-161
-2.3976e-160
4.27636e-159
-6.37891e-158
1.07159e-156
-1.75818e-155
2.32128e-154
-3.53833e-153
4.18171e-152
-4.38329e-151
5.96894e-150
-5.10642e-149
6.36262e-148
-4.55491e-147
5.16619e-146
-2.46564e-145
2.45777e-144
-2.50998e-143
8.84175e-143
-7.31515e-142
1.17481e-141
-7.31354e-141
5.59574e-140
-9.5999e-140
2.28614e-139
-1.08379e-138
2.68166e-138
2.19076e-137
-1.68472e-136
4.5913e-136
-2.75764e-136
-6.44285e-136
2.47574e-136
1.17888e-136
9.0426e-137
1.46384e-136
4.77167e-137
7.00149e-137
-4.10963e-137
-5.37868e-137
-2.52335e-137
-4.25668e-138
1.2127e-137
6.4905e-138
-2.60031e-138
-4.5832e-138
-5.50513e-138
3.67773e-140
2.73838e-138
1.46157e-138
2.20656e-139
-1.99075e-139
-1.1879e-139
-1.0513e-140
1.05948e-140
5.85105e-141
6.5758e-142
-3.95938e-142
-2.23045e-142
-3.64059e-143
9.58813e-144
6.92777e-144
1.46716e-144
-2.90594e-146
-1.21021e-145
-3.8855e-146
-3.51833e-147
2.23628e-147
1.42143e-147
3.55785e-148
-1.22065e-147
7.89744e-148
2.34343e-148
2.57764e-150
-1.17123e-149
-1.60053e-150
5.74169e-151
1.99599e-151
-1.01746e-152
-1.46806e-152
-2.07115e-172
4.96831e-171
6.06293e-170
-1.80078e-168
-4.53909e-167
1.25714e-165
-3.20994e-164
8.03676e-163
-1.97117e-161
-7.32183e-162
5.46441e-160
-1.24851e-158
2.81073e-157
-6.18455e-156
1.32932e-154
-2.78958e-153
5.71186e-152
-1.14044e-150
2.2189e-149
-4.20407e-148
7.75086e-147
-1.38943e-145
2.41975e-144
-4.09042e-143
6.70529e-142
-1.06483e-140
1.6364e-139
-2.43071e-138
3.48552e-137
-4.81832e-136
6.41163e-135
-6.09635e-134
7.3545e-133
-8.64493e-132
7.53485e-131
-5.94944e-130
3.69671e-129
-3.44925e-128
1.44054e-127
-1.15152e-126
1.60453e-126
-8.98133e-126
6.28437e-125
-5.80195e-125
2.37065e-124
-1.02532e-123
1.49292e-123
-1.57565e-122
1.38795e-121
-3.44468e-121
6.50766e-125
6.2834e-121
3.29923e-122
-2.31716e-121
-1.97441e-121
-6.39354e-122
1.40428e-123
6.39663e-122
5.21194e-122
-1.49949e-122
-5.49032e-122
-2.55341e-122
-8.10713e-123
2.19548e-122
2.01994e-122
4.17373e-123
-3.85874e-123
-3.56035e-123
-1.06155e-123
3.98865e-124
2.08238e-124
4.00373e-125
-1.09669e-125
-9.37737e-126
-2.31413e-126
1.57276e-127
2.84353e-127
8.09987e-128
1.60505e-129
-6.31586e-129
-2.27972e-129
-3.10259e-130
6.90244e-131
5.76887e-131
1.85585e-131
1.53992e-132
-1.58811e-132
-7.9353e-133
-1.05294e-133
1.76555e-133
-2.30138e-132
3.50173e-131
-2.13035e-131
-1.19957e-131
-1.03794e-132
1.15293e-132
5.60798e-133
-9.71464e-134
-7.85669e-134
-8.06699e-135
-2.26218e-156
4.45049e-155
-8.0211e-154
2.09862e-152
-4.62063e-151
1.08451e-149
-2.49533e-148
5.06223e-147
-1.08251e-145
2.24127e-144
-5.12905e-143
8.57433e-142
-1.18777e-140
2.49732e-139
-2.30872e-138
4.49802e-137
-5.53792e-136
1.04957e-134
-1.98395e-133
2.91867e-132
-3.86238e-131
4.35506e-130
-7.17885e-129
1.17241e-127
-8.71565e-127
-2.36524e-126
1.73695e-124
-2.56768e-123
3.54246e-122
-4.05888e-121
4.7354e-120
-5.27923e-119
4.99141e-118
-4.87478e-117
4.47659e-116
-5.06071e-115
4.8921e-114
-3.81537e-113
2.69852e-112
-1.71023e-111
9.39746e-111
-4.18839e-110
7.09667e-110
-3.3891e-109
6.15801e-109
-4.43124e-109
-8.18179e-108
5.43875e-107
-7.44015e-107
1.9318e-106
2.40999e-106
-3.45295e-106
-3.72254e-106
1.09856e-106
3.58988e-106
7.85723e-108
-1.91677e-106
-7.73512e-107
7.43691e-107
8.60418e-107
1.43119e-107
-3.41856e-107
-3.25665e-107
-1.15178e-107
2.10324e-108
3.59977e-108
1.93731e-108
2.54746e-109
-2.3693e-109
2.9561e-109
-1.91967e-109
-6.78459e-109
2.31192e-109
2.52906e-109
5.25607e-110
-2.5945e-110
-3.59074e-110
-1.56123e-111
1.01612e-110
2.9936e-111
-1.1207e-111
-1.37139e-111
-8.88717e-113
3.50293e-112
1.41216e-112
-1.49518e-113
-2.15756e-113
-4.16524e-114
8.67514e-115
1.50805e-114
2.02325e-115
-8.06881e-116
-4.16104e-116
-3.62838e-117
6.96234e-117
1.93622e-117
-3.40819e-118
-2.7935e-118
-3.4596e-119
1.91014e-119
1.93805e-141
-4.44574e-140
7.45216e-139
-1.90539e-137
1.99754e-136
-4.77e-135
1.16934e-133
-2.80556e-132
6.5881e-131
-2.91308e-129
6.64994e-128
-7.57702e-127
1.5712e-125
-3.28946e-124
3.97882e-123
-7.71627e-122
5.10002e-121
-8.91491e-120
1.64049e-118
-2.93065e-117
5.08541e-116
-8.56382e-115
1.39821e-113
-2.21106e-112
3.38274e-111
-2.89563e-110
2.49195e-109
3.7998e-109
-7.32114e-108
9.23437e-107
-1.13014e-105
1.32393e-104
-1.48156e-103
1.57982e-102
1.23274e-101
1.3825e-100
-1.38852e-99
1.17185e-98
-9.30931e-98
6.8532e-97
-4.63084e-96
2.00843e-95
-4.29971e-95
1.87297e-94
-5.87557e-95
-2.83885e-94
4.88993e-93
-2.78805e-92
1.2951e-91
-7.22694e-92
-4.37616e-91
7.53858e-91
4.0182e-91
-1.84047e-91
-3.32808e-91
-2.03231e-91
-4.24395e-92
2.28823e-92
1.34767e-92
-8.12967e-93
-1.31379e-92
-6.7104e-93
-4.96677e-94
1.50495e-93
8.8001e-94
1.01477e-93
-3.69244e-93
3.55778e-93
-2.40432e-94
-8.13959e-94
-1.63257e-94
4.66824e-94
1.23327e-94
-6.81405e-95
-5.16169e-95
-4.31786e-95
2.55996e-95
1.1969e-95
8.60493e-97
-1.64194e-96
-1.15709e-96
5.98794e-97
6.23406e-97
1.11674e-97
-2.23422e-98
-3.12028e-98
-4.11601e-99
5.07116e-99
1.77554e-99
6.92592e-101
-2.12736e-100
-5.30323e-101
5.43088e-102
5.54838e-102
5.2062e-103
-4.31558e-103
-1.43213e-103
4.80997e-105
1.24855e-104
1.45457e-105
-4.36228e-126
9.77814e-125
-3.11701e-123
6.45433e-122
-1.40495e-120
3.42522e-119
-5.92567e-118
1.37278e-116
-3.15178e-115
8.23667e-114
-1.57974e-112
2.88258e-111
-4.05649e-110
6.16237e-109
-8.53435e-108
2.22215e-106
-4.23627e-105
6.18729e-104
-5.69924e-103
9.51334e-102
-1.6012e-100
1.98839e-99
-2.36008e-98
1.68645e-97
-2.37056e-96
3.38552e-95
-4.18472e-94
4.93191e-93
-4.94033e-92
6.70072e-91
-7.86774e-90
8.76816e-89
-7.18058e-88
6.38024e-87
-6.0695e-86
4.90314e-85
-3.71e-84
2.08462e-83
-1.29917e-82
4.58833e-82
-1.85381e-81
1.44223e-80
-5.03514e-80
1.3078e-79
-1.44954e-79
-4.1493e-79
2.30259e-78
9.09813e-78
-7.93488e-77
-1.88312e-78
3.00381e-76
-4.58101e-76
-1.76819e-76
-1.82011e-77
-3.22675e-76
-2.77623e-76
2.00386e-76
6.08635e-76
5.23842e-76
1.11861e-76
-2.02711e-76
-2.34786e-76
-9.15328e-77
9.11934e-78
6.60105e-77
4.03648e-77
3.26377e-78
-7.39593e-78
-3.78275e-78
-1.10442e-79
3.89064e-79
3.05579e-80
-6.07874e-79
9.66501e-80
1.86396e-79
9.16153e-80
2.47061e-81
-1.00406e-80
-1.00701e-80
-1.13385e-81
1.61015e-81
8.08616e-82
5.58308e-83
-1.32585e-82
-4.9992e-83
2.67502e-85
7.00919e-84
1.90346e-84
-2.59208e-85
-2.75069e-85
-4.70204e-86
1.96248e-86
8.60727e-87
3.23697e-88
-7.55547e-88
-2.09507e-88
2.59482e-89
1.96962e-89
2.09033e-90
-1.16902e-90
-5.78012e-111
1.2926e-109
-3.47218e-108
8.83518e-107
-2.27091e-105
5.15049e-104
-1.16865e-102
2.50901e-101
-5.23553e-100
1.06163e-98
-2.17766e-97
4.35846e-96
-8.87128e-95
1.61279e-93
-2.67543e-92
4.46395e-91
-7.1435e-90
1.17686e-88
-1.87654e-87
2.36341e-86
-2.80162e-85
3.32117e-84
-4.21404e-83
5.0056e-82
-2.12304e-81
2.10943e-80
-2.58884e-79
2.91666e-78
-3.38439e-77
3.59771e-76
-3.42105e-75
3.20052e-74
-3.40856e-73
3.07448e-72
-2.5891e-71
1.89494e-70
-1.25953e-69
9.20158e-69
-6.25296e-68
3.86668e-67
-1.94382e-66
8.3866e-66
-2.52762e-65
7.08305e-65
2.24057e-65
-9.2618e-64
4.91098e-63
-1.71309e-62
3.39092e-62
1.37028e-62
-2.59178e-61
1.79124e-61
2.06984e-61
3.19825e-61
-5.37623e-62
-4.10262e-61
-3.79326e-61
-1.59635e-62
2.21955e-61
2.22958e-61
8.4731e-62
-4.50305e-62
-6.7625e-62
-3.86446e-62
-1.01147e-62
1.41467e-62
4.82779e-64
-3.64115e-63
-2.36991e-63
-4.35507e-64
1.81188e-63
8.37924e-64
-4.44067e-64
-4.79191e-64
-1.97151e-64
1.77808e-65
4.608e-65
1.74136e-65
-6.54859e-67
-2.71899e-66
-8.4903e-67
8.70572e-68
1.53722e-67
3.89624e-68
-4.5782e-69
-5.73756e-69
-1.1006e-69
2.81511e-70
1.90571e-70
2.33079e-71
-1.26574e-71
-5.24184e-72
-6.99902e-74
4.59439e-73
9.70613e-74
-2.28643e-74
-1.3582e-74
-5.74619e-76
1.07332e-75
1.43062e-76
-1.23702e-96
2.64384e-95
-6.6007e-94
1.61497e-92
6.74469e-91
-1.6634e-89
3.8119e-88
-8.54545e-87
1.87202e-85
-4.00523e-84
8.36437e-83
-1.70398e-81
3.38406e-80
-6.5473e-79
1.23317e-77
-2.25939e-76
4.02361e-75
-6.95862e-74
1.16766e-72
-1.49135e-71
2.32126e-70
-3.53719e-69
5.20544e-68
-7.39071e-67
7.47894e-67
-4.04829e-66
5.39804e-65
-6.55848e-64
7.63305e-63
-8.48492e-62
8.98673e-61
-9.04439e-60
8.6226e-59
-7.75949e-58
6.56384e-57
-5.19352e-56
3.82048e-55
-2.5931e-54
1.6077e-53
-8.97801e-53
4.42e-52
-1.84761e-51
6.03596e-51
-1.1403e-50
-2.23255e-50
3.23636e-49
-1.63761e-48
2.67299e-48
-4.08299e-48
-7.74383e-48
6.54306e-47
-2.10984e-47
5.40348e-47
-1.05627e-46
-4.86839e-47
3.45335e-47
8.03296e-47
5.77043e-47
8.79946e-49
-3.81777e-47
-4.79002e-47
-3.44537e-48
-7.6623e-48
3.6386e-47
-1.92881e-47
-1.97792e-47
-8.31739e-48
-9.3413e-49
4.66579e-49
2.26486e-48
2.04883e-49
-5.12996e-49
-3.06564e-49
-5.93641e-50
2.96305e-50
2.22902e-50
5.56292e-51
-1.6313e-51
-1.31875e-51
-2.48252e-52
6.74158e-53
4.45325e-53
1.48887e-53
1.38197e-54
-9.72977e-55
-4.3498e-55
-3.7493e-56
2.83504e-56
1.03376e-56
-5.8449e-59
-9.73465e-58
-9.03371e-59
-1.93906e-59
-3.26782e-59
-1.30321e-59
-7.03491e-61
9.23821e-61
4.82578e-61
-4.02666e-62
-1.19644e-63
6.30678e-80
-1.31475e-78
2.03492e-77
-4.77986e-76
4.86203e-75
-1.06541e-73
2.38873e-72
-5.23071e-71
1.11865e-69
4.41933e-69
-6.665e-67
1.36341e-65
-2.63511e-64
1.33712e-63
-2.1875e-62
3.90102e-61
-6.74116e-60
1.13025e-58
-1.83683e-57
2.89045e-56
-4.39922e-55
2.10964e-53
-3.08742e-52
4.21607e-51
-5.54346e-50
6.9995e-49
-8.47168e-48
9.80853e-47
-1.0839e-45
1.1403e-44
-1.13883e-43
1.07618e-42
-6.0739e-42
4.9253e-41
-3.85657e-40
2.7928e-39
-9.89573e-39
5.77839e-38
-7.5098e-38
3.31682e-37
-1.47801e-36
5.08917e-36
-1.28799e-35
-1.72474e-35
-4.05451e-35
-4.0979e-34
1.00202e-33
-1.70408e-33
4.68032e-33
1.07599e-32
-6.91255e-33
-1.12813e-31
-2.80492e-32
1.22286e-31
8.80892e-31
6.11437e-31
3.70785e-32
-7.26606e-31
-3.6685e-31
-1.89243e-31