/*--------------------------------*- C++ -*----------------------------------*\
  =========                 |
  \\      /  F ield         | OpenFOAM: The Open Source CFD Toolbox
   \\    /   O peration     | Website:  https://openfoam.org
    \\  /    A nd           | Version:  13
     \\/     M anipulation  |
\*---------------------------------------------------------------------------*/
FoamFile
{
    format      ascii;
    class       volScalarField;
    location    "7.2";
    object      T;
}
// * * * * * * * * * * * * * * * * * * * * * * * * * * * * * * * * * * * * * //

dimensions      [0 0 0 1 0 0 0];

internalField   nonuniform List<scalar> 
10000
(
8.90013e-46
1.78946e-45
-6.8198e-45
-2.83479e-44
7.20687e-45
2.57587e-43
4.21079e-43
-1.35336e-42
-6.00795e-42
-5.29117e-43
4.65147e-41
9.34916e-41
-1.74568e-40
-1.0403e-39
-7.46091e-40
6.05836e-39
1.72658e-38
-7.91318e-39
-1.33902e-37
-2.16172e-37
4.44065e-37
2.29976e-36
1.90022e-36
-1.03568e-35
-3.30543e-35
-7.28714e-36
1.77809e-34
4.18097e-34
-1.059e-34
-2.52292e-33
-4.88184e-33
2.65659e-33
3.09695e-32
5.495e-32
-3.06215e-32
-3.33691e-31
-6.07961e-31
1.58958e-31
3.10684e-30
6.46072e-30
1.61153e-30
-2.34426e-29
-6.18894e-29
-5.27529e-29
1.16706e-28
4.83523e-28
7.37857e-28
4.03788e-29
-2.52913e-27
-6.42422e-27
-7.50982e-27
2.29105e-27
3.00244e-26
6.97037e-26
8.79875e-26
2.09217e-26
-2.00864e-25
-5.89773e-25
-1.01606e-24
-1.14196e-24
-4.30147e-25
1.73629e-24
5.83421e-24
1.19508e-23
1.96083e-23
2.77552e-23
3.49597e-23
3.97622e-23
4.10813e-23
3.8539e-23
3.25936e-23
2.44277e-23
1.56204e-23
7.71054e-24
1.79719e-24
-1.68751e-24
-2.96997e-24
-2.72156e-24
-1.74837e-24
-7.156e-25
5.57626e-28
3.13495e-25
3.25349e-25
1.99176e-25
6.5015e-26
-1.61866e-26
-4.15162e-26
-3.50587e-26
-2.09904e-26
-1.16225e-26
-8.46604e-27
-8.50453e-27
-9.08312e-27
-9.30436e-27
-9.28485e-27
-9.24739e-27
-9.24279e-27
-9.24665e-27
-9.24741e-27
-9.24718e-27
1.78259e-45
-5.78667e-46
-1.96722e-44
-3.08075e-44
1.18705e-43
4.91514e-43
-1.08795e-43
-4.38394e-42
-7.34524e-42
2.21588e-41
1.01514e-40
1.78234e-41
-7.58642e-40
-1.60083e-39
2.61357e-39
1.69487e-38
1.42254e-38
-9.29355e-38
-2.83847e-37
7.33642e-38
2.06211e-36
3.67068e-36
-5.94659e-36
-3.54974e-35
-3.56947e-35
1.43579e-34
5.12253e-34
2.26271e-34
-2.47461e-33
-6.51251e-33
-1.93316e-34
3.48259e-32
7.61487e-32
-1.52601e-32
-4.19828e-31
-8.47884e-31
1.61861e-31
4.39017e-30
9.10133e-30
6.15765e-31
-3.90265e-29
-9.20373e-29
-4.66062e-29
2.73258e-28
8.26888e-28
8.64152e-28
-1.14506e-27
-5.98027e-27
-1.0127e-26
-3.00168e-27
2.80796e-26
7.87576e-26
1.00304e-25
-6.47078e-27
-3.31044e-25
-8.06662e-25
-1.04168e-24
-3.02031e-25
2.14718e-24
6.28078e-24
1.04092e-23
1.07529e-23
2.16938e-24
-1.97601e-23
-5.59427e-23
-1.01716e-22
-1.47003e-22
-1.79253e-22
-1.88182e-22
-1.70166e-22
-1.30006e-22
-7.91001e-23
-3.0876e-23
4.24288e-24
2.20084e-23
2.4494e-23
1.77039e-23
8.25094e-24
7.89506e-25
-2.9084e-24
-3.37622e-24
-2.17156e-24
-7.31989e-25
1.80866e-25
4.62639e-25
3.55925e-25
1.41506e-25
-1.88986e-26
-9.0944e-26
-1.05658e-25
-1.00784e-25
-9.59213e-26
-9.47087e-26
-9.5046e-26
-9.53248e-26
-9.53418e-26
-9.53084e-26
-9.53025e-26
-9.53053e-26
-9.53057e-26
-6.8356e-45
-1.97209e-44
4.36574e-44
2.54769e-43
9.48724e-44
-2.00926e-42
-4.5949e-42
7.96952e-42
5.27559e-41
3.72812e-41
-3.44524e-40
-9.58285e-40
7.55036e-40
8.66056e-39
1.15575e-38
-3.9605e-38
-1.61209e-37
-4.84765e-38
1.00434e-36
2.37214e-36
-1.75051e-36
-1.89476e-35
-2.8284e-35
5.86725e-35
2.96196e-34
2.77479e-34
-1.14458e-33
-4.05916e-33
-2.34675e-33
1.73036e-32
5.07682e-32
2.06898e-32
-2.17724e-31
-5.95094e-31
-2.62569e-31
2.30804e-30
6.56743e-30
4.41312e-30
-1.98207e-29
-6.64945e-29
-7.06163e-29
1.17374e-28
5.80318e-28
9.25097e-28
-7.78413e-29
-3.84328e-27
-9.24552e-27
-8.6226e-27
1.24053e-26
6.2637e-26
1.16442e-25
8.39584e-26
-1.74519e-25
-7.32164e-25
-1.36491e-24
-1.31816e-24
6.61121e-25
5.70063e-24
1.34547e-23
2.03874e-23
1.86339e-23
-3.33017e-24
-5.74218e-23
-1.5053e-22
-2.78918e-22
-4.25352e-22
-5.61324e-22
-6.54698e-22
-6.80354e-22
-6.29493e-22
-5.13406e-22
-3.59811e-22
-2.03268e-22
-7.38269e-23
1.13958e-23
5.07612e-23
5.47702e-23
3.93459e-23
1.91417e-23
3.43883e-24
-4.59989e-24
-6.19643e-24
-4.36065e-24
-1.81387e-24
-4.27914e-26
6.52021e-25
6.22261e-25
3.37084e-25
9.33876e-26
-2.36245e-26
-4.96702e-26
-4.26525e-26
-3.50103e-26
-3.31784e-26
-3.37601e-26
-3.41712e-26
-3.41734e-26
-3.41253e-26
-3.41213e-26
-3.41242e-26
-2.83627e-44
-3.09304e-44
2.54575e-43
7.39231e-43
-8.80656e-43
-8.03462e-42
-7.42999e-42
5.34672e-41
1.616e-40
-1.28334e-40
-1.53014e-39
-1.91155e-39
8.10224e-39
3.00345e-38
-1.96166e-39
-2.22543e-37
-4.21345e-37
7.32872e-37
4.35143e-36
3.7047e-36
-2.14303e-35
-6.72132e-35
5.40247e-37
4.21143e-34
8.5955e-34
-7.56171e-34
-6.62368e-33
-9.46744e-33
1.74895e-32
8.92683e-32
9.52812e-32
-2.68573e-31
-1.07217e-30
-9.63943e-31
3.21027e-30
1.17241e-29
1.07116e-29
-3.0458e-29
-1.16697e-28
-1.28438e-28
2.12396e-28
1.02635e-27
1.4846e-27
-6.86918e-28
-7.40972e-27
-1.47199e-26
-7.09543e-27
3.65233e-26
1.11978e-25
1.42717e-25
-3.01899e-26
-5.35482e-25
-1.20529e-24
-1.3054e-24
3.66137e-25
4.62806e-24
1.03773e-23
1.32742e-23
6.22774e-24
-1.71315e-23
-5.66436e-23
-1.00645e-22
-1.26252e-22
-1.07557e-22
-2.96331e-23
9.87697e-23
2.4246e-22
3.51277e-22
3.81885e-22
3.1886e-22
1.83225e-22
2.32084e-23
-1.07884e-22
-1.74649e-22
-1.717e-22
-1.20223e-22
-5.32621e-23
8.80906e-25
2.86868e-23
3.18901e-23
2.10423e-23
7.51626e-24
-1.68859e-24
-4.95651e-24
-4.13537e-24
-1.90914e-24
-8.48964e-26
7.91581e-25
9.70642e-25
8.82411e-25
7.9135e-25
7.6176e-25
7.65317e-25
7.71673e-25
7.73037e-25
7.72423e-25
7.72127e-25
7.72164e-25
7.72196e-25
7.72194e-25
7.23779e-45
1.18695e-43
9.45508e-44
-8.81533e-43
-2.54596e-42
2.72344e-42
2.71989e-41
3.05426e-41
-1.65956e-40
-5.80605e-40
1.76597e-40
4.96214e-39
8.65359e-39
-2.0514e-38
-1.07252e-37
-6.79315e-38
6.42676e-37
1.82119e-36
-7.3231e-37
-1.41552e-35
-2.48671e-35
4.19157e-35
2.52645e-34
2.71411e-34
-1.01373e-33
-3.88339e-33
-2.28865e-33
1.8199e-32
5.35545e-32
1.41423e-32
-2.70353e-31
-6.84874e-31
-8.21854e-32
3.44687e-30
8.30234e-30
1.54069e-30
-3.78115e-29
-9.55009e-29
-4.30574e-29
3.44765e-28
1.01413e-27
8.77873e-28
-2.32632e-27
-9.37192e-27
-1.3064e-26
6.30156e-27
6.7614e-26
1.42944e-25
9.91606e-26
-2.81918e-25
-1.07058e-24
-1.72209e-24
-7.1077e-25
3.95486e-24
1.25446e-23
2.00124e-23
1.34436e-23
-2.49492e-23
-1.05236e-22
-2.08492e-22
-2.66257e-22
-1.57214e-22
2.63944e-22
1.10447e-21
2.35935e-21
3.86312e-21
5.30417e-21
6.31206e-21
6.58978e-21
6.033e-21
4.7783e-21
3.15443e-21
1.55855e-21
3.15802e-22
-4.15866e-22
-6.61355e-22
-5.72418e-22
-3.38986e-22
-1.12772e-22
2.90984e-23
7.86969e-23
6.75671e-23
3.46761e-23
6.57445e-24
-7.26313e-24
-9.1796e-24
-5.55509e-24
-1.4637e-24
9.81356e-25
1.83415e-24
1.89227e-24
1.77678e-24
1.717e-24
1.71282e-24
1.72038e-24
1.72282e-24
1.72229e-24
1.72194e-24
1.72196e-24
1.72199e-24
2.57757e-43
4.92239e-43
-2.00893e-42
-8.03728e-42
2.71675e-42
7.42726e-41
1.15752e-40
-4.01405e-40
-1.70574e-39
-4.01496e-42
1.34905e-38
2.58941e-38
-5.31504e-38
-2.97293e-37
-1.87586e-37
1.78356e-36
4.84686e-36
-2.82943e-36
-3.88018e-35
-5.88159e-35
1.36853e-34
6.57639e-34
4.76528e-34
-3.10359e-33
-9.31963e-33
-8.92784e-34
5.25872e-32
1.16035e-31
-4.84311e-32
-7.40557e-31
-1.33364e-30
1.00592e-30
9.06172e-30
1.4845e-29
-1.18082e-29
-9.78718e-29
-1.64011e-28
8.02628e-29
9.21493e-28
1.75985e-27
1.01844e-28
-7.15593e-27
-1.7187e-26
-1.19067e-26
3.88831e-26
1.38542e-25
1.89488e-25
-4.24507e-26
-7.74455e-25
-1.7627e-24
-1.77398e-24
1.33358e-24
9.01397e-24
1.87348e-23
2.06715e-23
-1.79892e-24
-6.37091e-23
-1.61503e-22
-2.53302e-22
-2.48394e-22
-1.8214e-23
5.67129e-22
1.58648e-21
3.02032e-21
4.7305e-21
6.47806e-21
7.97434e-21
8.94816e-21
9.20923e-21
8.693e-21
7.47843e-21
5.77467e-21
3.87657e-21
2.09589e-21
6.85218e-22
-2.21082e-22
-6.27024e-22
-6.49464e-22
-4.59667e-22
-2.18518e-22
-3.15294e-23
6.34533e-23
8.01562e-23
5.49852e-23
2.17352e-23
-9.98864e-25
-9.79087e-24
-9.565e-24
-6.47143e-24
-4.09919e-24
-3.2076e-24
-3.17239e-24
-3.31615e-24
-3.37863e-24
-3.376e-24
-3.36612e-24
-3.36457e-24
-3.36555e-24
-3.36578e-24
-3.36572e-24
4.21436e-43
-1.06905e-43
-4.59293e-42
-7.43366e-42
2.71801e-41
1.15718e-40
-1.84711e-41
-1.01687e-39
-1.76266e-39
5.00682e-39
2.37502e-38
5.72699e-39
-1.74039e-37
-3.80048e-37
5.70715e-37
3.92046e-36
3.55358e-36
-2.09008e-35
-6.62858e-35
1.11408e-35
4.68386e-34
8.71205e-34
-1.26528e-33
-8.11362e-33
-8.77853e-33
3.13848e-32
1.17712e-31
6.214e-32
-5.4517e-31
-1.50347e-30
-1.99802e-31
7.68022e-30
1.76256e-29
-1.41466e-30
-9.22272e-29
-1.95901e-28
1.25799e-29
9.55394e-28
2.08542e-27
3.86557e-28
-8.34512e-27
-2.07671e-26
-1.25934e-26
5.64598e-26
1.82455e-25
2.06439e-25
-2.12336e-25
-1.2778e-24
-2.2816e-24
-9.41959e-25
5.63668e-24
1.69097e-23
2.28517e-23
2.08828e-24
-6.60372e-23
-1.70567e-22
-2.31955e-22
-9.52212e-23
4.02105e-22
1.27251e-21
2.18701e-21
2.37927e-21
7.87886e-22
-3.51588e-21
-1.07488e-20
-1.99818e-20
-2.91636e-20
-3.5721e-20
-3.75406e-20
-3.38761e-20
-2.57159e-20
-1.54024e-20
-5.68654e-21
1.31176e-21
4.75203e-21
5.09323e-21
3.59025e-21
1.60421e-21
7.6479e-23
-6.5267e-22
-7.1503e-22
-4.44132e-22
-1.38719e-22
4.83033e-23
1.01324e-22
7.46934e-23
2.79928e-23
-5.70889e-24
-2.03112e-23
-2.29842e-23
-2.18005e-23
-2.07713e-23
-2.05416e-23
-2.06237e-23
-2.06819e-23
-2.06837e-23
-2.06764e-23
-2.06753e-23
-2.0676e-23
-2.06761e-23
-1.35319e-42
-4.38356e-42
7.9707e-42
5.34707e-41
3.05389e-41
-4.01466e-40
-1.01704e-39
1.39981e-39
1.09795e-38
9.86497e-39
-6.75722e-38
-2.07828e-37
1.08762e-37
1.77003e-36
2.7004e-36
-7.41615e-36
-3.40062e-35
-1.68284e-35
1.9849e-34
5.17929e-34
-2.44419e-34
-3.85435e-33
-6.47019e-33
1.04333e-32
6.15118e-32
6.8209e-32
-2.15227e-31
-8.56428e-31
-6.44061e-31
3.32986e-30
1.08253e-29
6.3223e-30
-4.22355e-29
-1.27363e-28
-7.7873e-29
4.45544e-28
1.39972e-27
1.15621e-27
-3.73359e-27
-1.40054e-26
-1.67952e-26
2.02651e-26
1.19814e-25
2.0725e-25
2.24397e-26
-7.65142e-25
-1.98757e-24
-2.07537e-24
2.13095e-24
1.29255e-23
2.55049e-23
2.09616e-23
-3.18275e-23
-1.52215e-22
-2.9738e-22
-3.08054e-22
9.1404e-23
1.16421e-21
2.86849e-21
4.47259e-21
4.28572e-21
-2.18183e-22
-1.16954e-20
-3.17321e-20
-5.9584e-20
-9.15093e-20
-1.2124e-19
-1.41673e-19
-1.4725e-19
-1.36033e-19
-1.10549e-19
-7.69522e-20
-4.28759e-20
-1.49029e-20
3.28836e-21
1.14495e-20
1.19808e-20
8.41879e-21
3.96011e-21
5.81922e-22
-1.08841e-21
-1.36582e-21
-9.27922e-22
-3.65633e-22
1.08009e-23
1.49445e-22
1.34301e-22
6.87411e-23
1.5419e-23
-9.36441e-24
-1.45442e-23
-1.2892e-23
-1.12619e-23
-1.08971e-23
-1.1029e-23
-1.11147e-23
-1.11138e-23
-1.11036e-23
-1.11029e-23
-1.11035e-23
-6.00922e-42
-7.35581e-42
5.27447e-41
1.61631e-40
-1.65833e-40
-1.70566e-39
-1.76315e-39
1.09781e-38
3.514e-38
-2.24432e-38
-3.21989e-37
-4.38902e-37
1.62999e-36
6.45114e-36
4.30289e-37
-4.60689e-35
-9.33113e-35
1.38986e-34
9.16884e-34
8.88924e-34
-4.28643e-33
-1.44084e-32
-1.93372e-33
8.59483e-32
1.88201e-31
-1.26449e-31
-1.36765e-30
-2.13212e-30
3.21684e-30
1.85689e-29
2.22053e-29
-5.04789e-29
-2.23767e-28
-2.30937e-28
6.01737e-28
2.44172e-27
2.56582e-27
-5.56013e-27
-2.40695e-26
-2.98733e-26
3.57177e-26
2.07387e-25
3.31272e-25
-6.21386e-26
-1.43837e-24
-3.14023e-24
-2.08219e-24
6.39526e-24
2.26002e-23
3.24258e-23
3.18333e-24
-9.69804e-23
-2.46514e-22
-3.09291e-22
-3.56156e-23
7.91719e-22
2.05775e-21
3.01244e-21
2.25826e-21
-1.71402e-21
-9.49292e-21
-1.97316e-20
-2.89438e-20
-3.26583e-20
-2.76849e-20
-1.43438e-20
2.81614e-21
1.6625e-20
2.06613e-20
1.25994e-20
-4.42378e-21
-2.32903e-20
-3.64125e-20
-3.92828e-20
-3.21635e-20
-1.92398e-20
-6.05108e-21
3.18402e-21
6.98786e-21
6.40327e-21
3.70083e-21
9.74873e-22
-6.57535e-22
-1.09286e-21
-7.99954e-22
-3.18348e-22
3.07959e-23
1.78018e-22
1.94057e-22
1.68208e-22
1.487e-22
1.43534e-22
1.44799e-22
1.46162e-22
1.4638e-22
1.46231e-22
1.46174e-22
1.46184e-22
1.46191e-22
1.4619e-22
-5.33013e-43
2.21293e-41
3.72444e-41
-1.2827e-40
-5.80244e-40
-3.42056e-42
5.00643e-39
9.86071e-39
-2.24522e-38
-1.25717e-37
-6.83569e-38
8.65462e-37
2.27519e-36
-2.07915e-36
-2.14665e-35
-2.82699e-35
9.93136e-35
4.07971e-34
1.42029e-34
-2.5383e-33
-6.2764e-33
3.80773e-33
4.93129e-32
8.01983e-32
-1.40934e-31
-8.00924e-31
-8.71238e-31
2.89329e-30
1.1425e-29
8.48795e-30
-4.55444e-29
-1.48067e-28
-8.50825e-29
5.92125e-28
1.78135e-27
1.05296e-27
-6.43433e-27
-1.99568e-26
-1.57081e-26
5.6179e-26
2.03522e-25
2.31327e-25
-3.34969e-25
-1.78634e-24
-2.91434e-24
1.8318e-25
1.20074e-23
2.87967e-23
2.58062e-23
-4.20536e-23
-1.98207e-22
-3.51679e-22
-2.12899e-22
6.30173e-22
2.30777e-21
3.95974e-21
3.17099e-21
-3.57309e-21
-1.85787e-20
-3.88721e-20
-5.21133e-20
-3.56748e-20
3.81295e-20
1.90322e-19
4.20979e-19
6.9974e-19
9.68213e-19
1.15647e-18
1.20826e-18
1.10387e-18
8.69282e-19
5.66835e-19
2.71462e-19
4.39336e-20
-8.70435e-20
-1.27404e-19
-1.0667e-19
-6.08949e-20
-1.82623e-20
7.48879e-21
1.56609e-20
1.27128e-20
6.14183e-21
8.43525e-22
-1.59945e-21
-1.79284e-21
-1.01197e-21
-2.11176e-22
2.44168e-22
3.92894e-22
3.97331e-22
3.74396e-22
3.63787e-22
3.63454e-22
3.64919e-22
3.6532e-22
3.65204e-22
3.65143e-22
3.6515e-22
3.65154e-22
4.65115e-41
1.01503e-40
-3.44543e-40
-1.53016e-39
1.76742e-40
1.34914e-38
2.3752e-38
-6.75736e-38
-3.22009e-37
-6.84075e-38
2.41414e-36
5.16593e-36
-8.44826e-36
-5.51133e-35
-4.53735e-35
3.09288e-34
9.32495e-34
-3.02608e-34
-6.97816e-33
-1.19932e-32
2.16612e-32
1.21458e-31
1.11597e-31
-5.23584e-31
-1.76449e-30
-5.62607e-31
9.12291e-30
2.25186e-29
-3.16745e-30
-1.30392e-28
-2.64555e-28
1.10733e-28
1.60493e-27
2.98188e-27
-1.28972e-27
-1.72705e-26
-3.28424e-26
5.11784e-27
1.5987e-25
3.45815e-25
1.13703e-25
-1.19064e-24
-3.27347e-24
-2.9855e-24
5.70937e-24
2.52038e-23
3.9838e-23
5.42025e-24
-1.2862e-22
-3.38342e-22
-4.10616e-22
8.35089e-23
1.53643e-21
3.67183e-21
4.76692e-21
1.43135e-21
-1.01175e-20
-3.0772e-20
-5.39521e-20
-6.1938e-20
-2.61083e-20
8.68111e-20
3.02969e-19
6.27761e-19
1.03604e-18
1.47134e-18
1.8563e-18
2.11196e-18
2.18006e-18
2.04084e-18
1.72008e-18
1.28248e-18
8.13416e-19
3.95053e-19
8.50422e-20
-9.51354e-20
-1.59006e-19
-1.43159e-19
-9.05481e-20
-3.60237e-20
1.14534e-21
1.69475e-20
1.70966e-20
1.02629e-20
3.21492e-21
-9.62183e-22
-2.20497e-21
-1.81489e-21
-1.05875e-21
-5.66311e-22
-4.03683e-22
-4.07365e-22
-4.37923e-22
-4.49332e-22
-4.48217e-22
-4.46259e-22
-4.46031e-22
-4.46234e-22
-4.46272e-22
-4.46261e-22
9.34998e-41
1.79767e-41
-9.58064e-40
-1.91194e-39
4.96009e-39
2.5892e-38
5.7341e-39
-2.07801e-37
-4.38888e-37
8.65334e-37
5.16557e-36
3.04732e-36
-3.41616e-35
-8.91138e-35
8.24901e-35
8.14983e-34
1.00303e-33
-3.78946e-33
-1.44747e-32
-3.02048e-33
9.07207e-32
2.02649e-31
-1.72687e-31
-1.63009e-30
-2.27596e-30
5.18118e-30
2.42708e-29
2.0553e-29
-9.5118e-29
-3.15867e-28
-1.52393e-28
1.36351e-27
3.7367e-27
1.11822e-27
-1.62925e-26
-4.12796e-26
-1.31439e-26
1.64314e-25
4.28299e-25
2.29449e-25
-1.35411e-24
-4.07281e-24
-3.70413e-24
8.03829e-24
3.34377e-23
4.70594e-23
-1.58008e-23
-2.11154e-22
-4.46113e-22
-3.28417e-22
7.31737e-22
2.86203e-21
4.59777e-21
2.24901e-21
-8.5014e-21
-2.76023e-20
-4.38628e-20
-3.21139e-20
3.79818e-20
1.77898e-19
3.48594e-19
4.41471e-19
2.95608e-19
-2.39023e-19
-1.21146e-18
-2.49886e-18
-3.80484e-18
-4.74814e-18
-5.01199e-18
-4.484e-18
-3.31286e-18
-1.84929e-18
-5.00384e-19
4.28635e-19
8.29868e-19
7.8998e-19
5.08144e-19
1.88967e-19
-3.5254e-20
-1.26824e-19
-1.17565e-19
-6.45379e-20
-1.40043e-20
1.33398e-20
1.84399e-20
1.18686e-20
3.49835e-21
-1.87934e-21
-3.90886e-21
-4.09954e-21
-3.82063e-21
-3.6522e-21
-3.62979e-21
-3.6492e-21
-3.65826e-21
-3.65756e-21
-3.65624e-21
-3.65617e-21
-3.65629e-21
-3.6563e-21
-1.74553e-40
-7.58176e-40
7.55857e-40
8.10154e-39
8.64713e-39
-5.31624e-38
-1.74032e-37
1.08845e-37
1.63016e-36
2.27516e-36
-8.44927e-36
-3.41638e-35
-2.68568e-36
2.50792e-34
5.18524e-34
-7.77413e-34
-5.25125e-33
-5.21156e-33
2.53784e-32
8.71713e-32
1.23474e-32
-5.39881e-31
-1.20896e-30
8.25272e-31
9.16464e-30
1.46226e-29
-2.26124e-29
-1.33654e-28
-1.63391e-28
3.84812e-28
1.74401e-27
1.83079e-27
-5.03545e-27
-2.08094e-26
-2.20653e-26
5.20839e-26
2.27237e-25
2.82633e-25
-3.91601e-25
-2.21101e-24
-3.52182e-24
1.19123e-24
1.79081e-23
3.85992e-23
2.13893e-23
-1.01576e-22
-3.36085e-22
-4.52381e-22
1.17235e-22
1.95085e-21
4.56185e-21
4.91753e-21
-2.81884e-21
-2.36805e-20
-5.28659e-20
-6.43991e-20
-7.79147e-21
1.72385e-19
4.84548e-19
8.15824e-19
8.72909e-19
1.93107e-19
-1.7326e-18
-5.23393e-18
-1.02133e-17
-1.60039e-17
-2.14458e-17
-2.52043e-17
-2.62269e-17
-2.41479e-17
-1.94508e-17
-1.33035e-17
-7.13939e-18
-2.17059e-18
9.57255e-19
2.24826e-18
2.18925e-18
1.45272e-18
6.20086e-19
2.88858e-20
-2.35814e-19
-2.53585e-19
-1.57126e-19
-5.23177e-20
1.11701e-20
3.0269e-20
2.35554e-20
1.019e-20
5.06356e-22
-3.61464e-21
-4.31492e-21
-3.9613e-21
-3.68506e-21
-3.6356e-21
-3.66163e-21
-3.67521e-21
-3.67439e-21
-3.67269e-21
-3.67263e-21
-3.67274e-21
-1.04035e-39
-1.60058e-39
8.66151e-39
3.00355e-38
-2.05176e-38
-2.97312e-37
-3.80078e-37
1.77008e-36
6.45148e-36
-2.07849e-36
-5.51136e-35
-8.9119e-35
2.5078e-34
1.15451e-33
3.89174e-34
-7.61327e-33
-1.77157e-32
1.82308e-32
1.57684e-31
1.9223e-31
-6.5456e-31
-2.56697e-30
-1.06437e-30
1.37943e-29
3.48821e-29
-1.01897e-29
-2.25466e-28
-4.14501e-28
3.91226e-28
3.11074e-27
4.54761e-27
-6.59769e-27
-3.77446e-26
-4.90849e-26
7.83577e-26
4.1005e-25
5.43521e-25
-6.71389e-25
-3.96293e-24
-6.05135e-24
3.18196e-24
3.27108e-23
6.28184e-23
1.5968e-23
-2.0722e-22
-5.50752e-22
-5.43933e-22
6.83038e-22
3.55669e-21
6.29421e-21
3.54215e-21
-1.16336e-20
-3.98409e-20
-6.35283e-20
-4.10496e-20
7.85418e-20
3.11674e-19
5.80427e-19
6.75408e-19
2.87747e-19
-8.72266e-19
-2.91155e-18
-5.63908e-18
-8.58991e-18
-1.12052e-17
-1.30793e-17
-1.41227e-17
-1.45324e-17
-1.4585e-17
-1.43953e-17
-1.38148e-17
-1.25453e-17
-1.03922e-17
-7.48105e-18
-4.28398e-18
-1.43618e-18
5.43835e-19
1.46332e-18
1.48693e-18
1.00077e-18
4.09319e-19
-2.02501e-20
-2.05841e-19
-2.02481e-19
-1.15186e-19
-2.86291e-20
2.04066e-20
3.40677e-20
3.00813e-20
2.338e-20
1.99263e-20
1.93705e-20
1.97481e-20
1.99899e-20
2.0006e-20
1.99741e-20
1.99658e-20
1.99686e-20
1.99697e-20
1.99695e-20
-7.46297e-40
2.61129e-39
1.15547e-38
-1.95458e-39
-1.07219e-37
-1.87555e-37
5.70599e-37
2.69997e-36
4.29994e-37
-2.14647e-35
-4.53679e-35
8.24921e-35
5.18496e-34
3.89102e-34
-3.15707e-33
-9.20148e-33
4.62964e-33
7.54348e-32
1.20246e-31
-2.77311e-31
-1.38514e-30
-1.00296e-30
6.98575e-30
2.09797e-29
-4.62051e-32
-1.29569e-28
-2.74092e-28
1.8453e-28
1.98816e-27
3.23469e-27
-4.0746e-27
-2.65602e-26
-3.65119e-26
5.8446e-26
3.17106e-25
4.16157e-25
-6.1989e-25
-3.40343e-24
-4.84942e-24
4.50571e-24
3.21939e-23
5.50745e-23
-9.2724e-24
-2.52809e-22
-5.61407e-22
-3.28098e-22
1.40545e-21
4.64812e-21
6.07416e-21
-2.01109e-21
-2.64604e-20
-5.86105e-20
-5.70607e-20
4.89934e-20
3.0551e-19
6.22411e-19
6.64372e-19
-1.22904e-19
-2.2074e-18
-5.36982e-18
-8.04516e-18
-7.08651e-18
1.56499e-18
2.11981e-17
5.21865e-17
9.04838e-17
1.27862e-16
1.54273e-16
1.61563e-16
1.46866e-16
1.13974e-16
7.19237e-17
3.14702e-17
1.14673e-18
-1.5289e-17
-1.91e-17
-1.48183e-17
-7.68898e-18
-1.60481e-18
1.73811e-18
2.50854e-18
1.80221e-18
7.41001e-19
-1.36892e-20
-3.0525e-19
-2.75797e-19
-1.31667e-19
-7.90631e-21
5.48005e-20
7.17723e-20
7.01629e-20
6.65109e-20
6.52338e-20
6.53431e-20
6.55639e-20
6.56007e-20
6.55787e-20
6.55718e-20
6.55734e-20
6.55739e-20
6.05853e-39
1.69413e-38
-3.96202e-38
-2.22535e-37
-6.78235e-38
1.78378e-36
3.92037e-36
-7.41757e-36
-4.60719e-35
-2.82694e-35
3.09305e-34
8.15021e-34
-7.77414e-34
-7.61346e-33
-9.20191e-33
3.682e-32
1.382e-31
1.94537e-32
-9.04589e-31
-1.95666e-30
1.9713e-30
1.66486e-29
2.17951e-29
-5.81061e-29
-2.5371e-28
-1.86314e-28
1.08842e-27
3.3836e-27
1.14734e-27
-1.61178e-26
-4.12216e-26
-5.31128e-27
2.01071e-25
4.73711e-25
6.58421e-26
-2.14541e-24
-5.18817e-24
-1.93255e-24
1.90796e-23
5.29441e-23
4.12297e-23
-1.2744e-22
-4.74466e-22
-6.20507e-22
3.83478e-22
3.34157e-21
6.74844e-21
4.31048e-21
-1.36923e-20
-4.96502e-20
-7.83741e-20
-3.23331e-20
1.75244e-19
5.57906e-19
9.05082e-19
6.68419e-19
-9.37396e-19
-4.44855e-18
-9.27675e-18
-1.27484e-17
-9.65854e-18
7.01002e-18
4.39214e-17
1.04223e-16
1.84599e-16
2.74076e-16
3.55687e-16
4.10945e-16
4.25703e-16
3.95133e-16
3.25694e-16
2.33151e-16
1.37412e-16
5.6287e-17
6.25132e-19
-2.74934e-17
-3.33065e-17
-2.58161e-17
-1.39255e-17
-3.78532e-18
2.0163e-18
3.72046e-18
2.95761e-18
1.43666e-18
2.27277e-19
-3.40143e-19
-4.08805e-19
-2.62059e-19
-1.08804e-19
-2.66548e-20
-4.8657e-21
-8.09311e-21
-1.33597e-20
-1.48915e-20
-1.45701e-20
-1.42658e-20
-1.42499e-20
-1.42838e-20
-1.42881e-20
-1.4286e-20
1.72685e-38
1.4221e-38
-1.61236e-37
-4.21382e-37
6.42747e-37
4.84727e-36
3.55416e-36
-3.40072e-35
-9.33172e-35
9.93042e-35
9.32505e-34
1.00311e-33
-5.25111e-33
-1.77157e-32
4.62864e-33
1.38198e-31
2.37816e-31
-5.02217e-31
-2.63548e-30
-1.85621e-30
1.37703e-29
3.98538e-29
-7.05285e-30
-2.63799e-28
-4.98302e-28
5.56557e-28
4.09148e-27
5.34439e-27
-1.18737e-26
-5.47111e-26
-5.22689e-26
1.77956e-25
6.5523e-25
5.20125e-25
-2.11553e-24
-7.17996e-24
-5.86149e-24
2.02399e-23
7.19764e-23
7.28933e-23
-1.45628e-22
-6.40797e-22
-8.74443e-22
5.51887e-22
4.71511e-21
8.94003e-21
3.50462e-21
-2.41408e-20
-6.99331e-20
-8.45961e-20
3.00255e-20
3.47443e-19
7.49951e-19
7.68119e-19
-3.3961e-19
-3.03501e-18
-6.53533e-18
-8.02875e-18
-3.06425e-18
1.21638e-17
3.71055e-17
6.37745e-17
7.71112e-17
6.0422e-17
4.4751e-18
-8.43698e-17
-1.82514e-16
-2.56691e-16
-2.78196e-16
-2.36639e-16
-1.45588e-16
-3.66757e-17
5.47316e-17
1.04577e-16
1.08254e-16
7.8717e-17
3.71584e-17
2.25129e-18
-1.65702e-17
-1.97201e-17
-1.35367e-17
-5.19638e-18
7.08652e-19
2.95915e-18
2.59046e-18
1.25418e-18
1.08388e-19
-4.66138e-19
-6.00362e-19
-5.55859e-19
-5.01292e-19
-4.82149e-19
-4.83677e-19
-4.87486e-19
-4.88393e-19
-4.88046e-19
-4.8786e-19
-4.87879e-19
-4.87899e-19
-4.87898e-19
-7.90593e-39
-9.29006e-38
-4.84571e-38
7.32713e-37
1.82069e-36
-2.8297e-36
-2.08986e-35
-1.68219e-35
1.3899e-34
4.07945e-34
-3.02685e-34
-3.7895e-33
-5.21124e-33
1.82317e-32
7.5435e-32
1.94493e-32
-5.02228e-31
-1.16591e-30
1.08062e-30
1.01829e-29
1.40051e-29
-3.75304e-29
-1.69603e-28
-1.22534e-28
7.92713e-28
2.4529e-27
5.62152e-28
-1.31872e-26
-3.21476e-26
3.62095e-27
1.86231e-25
3.96463e-25
-1.00438e-25
-2.29723e-24
-4.71972e-24
6.91488e-25
2.47665e-23
5.42071e-23
1.0155e-23
-2.259e-22
-5.80886e-22
-3.8795e-22
1.577e-21
5.44691e-21
6.72852e-21
-5.52621e-21
-4.01502e-20
-7.8179e-20
-4.37587e-20
1.7763e-19
6.05441e-19
9.15709e-19
2.71902e-19
-2.35023e-18
-6.95773e-18
-1.06614e-17
-6.46965e-18
1.48914e-17
5.81474e-17
1.12324e-16
1.40355e-16
7.80032e-17
-1.50442e-16
-5.99577e-16
-1.26462e-15
-2.0572e-15
-2.81366e-15
-3.34085e-15
-3.48468e-15
-3.19147e-15
-2.53265e-15
-1.67938e-15
-8.38748e-16
-1.80989e-16
2.10011e-16
3.45485e-16
3.03387e-16
1.82665e-16
6.3368e-17
-1.28782e-17
-4.07226e-17
-3.6002e-17
-1.90489e-17
-4.08008e-18
3.5559e-18
4.83802e-18
3.04565e-18
8.92212e-19
-4.35187e-19
-9.164e-19
-9.59455e-19
-8.99214e-19
-8.65732e-19
-8.6265e-19
-8.66672e-19
-8.68095e-19
-8.67839e-19
-8.67641e-19
-8.6765e-19
-8.67663e-19
-1.33902e-37
-2.83733e-37
1.00456e-36
4.35127e-36
-7.34007e-37
-3.8805e-35
-6.62841e-35
1.98512e-34
9.16929e-34
1.42019e-34
-6.97842e-33
-1.44753e-32
2.53784e-32
1.57687e-31
1.20253e-31
-9.04589e-31
-2.63551e-30
1.08056e-30
2.0173e-29
3.31977e-29
-6.57853e-29
-3.47779e-28
-2.93927e-28
1.55378e-27
5.0015e-27
1.15143e-27
-2.67962e-26
-6.3114e-26
1.61212e-26
3.80798e-25
7.33157e-25
-4.13398e-25
-4.67593e-24
-8.19642e-24
4.89437e-24
5.04136e-23
9.01378e-23
-2.84413e-23
-4.70818e-22
-9.55164e-22
-1.82495e-22
3.58899e-21
9.16666e-21
7.27357e-21
-1.85535e-20
-7.22566e-20
-1.0538e-19
6.24341e-21
3.88828e-19
9.38383e-19
1.02413e-18
-5.1395e-19
-4.57128e-18
-1.00226e-17
-1.18168e-17
-9.26329e-19
3.15147e-17
8.51513e-17
1.39178e-16
1.45261e-16
3.17519e-17
-2.77463e-16
-8.33485e-16
-1.63327e-15
-2.6039e-15
-3.60893e-15
-4.47658e-15
-5.04126e-15
-5.18576e-15
-4.87222e-15
-4.15352e-15
-3.16198e-15
-2.07716e-15
-1.08079e-15
-3.11693e-16
1.64802e-16
3.62643e-16
3.55513e-16
2.41637e-16
1.08335e-16
9.65957e-18
-3.76252e-17
-4.3484e-17
-2.84561e-17
-1.04507e-17
1.26088e-18
5.4374e-18
4.98723e-18
3.21073e-18
1.93176e-18
1.47258e-18
1.46426e-18
1.54257e-18
1.57478e-18
1.5728e-18
1.56755e-18
1.56681e-18
1.56734e-18
1.56745e-18
1.56742e-18
-2.16229e-37
7.34327e-38
2.37264e-36
3.70543e-36
-1.41564e-35
-5.88229e-35
1.11313e-35
5.17947e-34
8.89019e-34
-2.53817e-33
-1.19934e-32
-3.02169e-33
8.71696e-32
1.92232e-31
-2.77296e-31
-1.95664e-30
-1.85622e-30
1.01827e-29
3.31974e-29
-2.96878e-30
-2.28225e-28
-4.42901e-28
5.67399e-28
3.9598e-27
4.65007e-27
-1.4386e-26
-5.76617e-26
-3.71978e-26
2.50542e-25
7.40196e-25
2.11082e-25
-3.51197e-24
-8.7091e-24
-9.47366e-25
4.16533e-23
9.65457e-23
1.42738e-23
-4.21543e-22
-1.01344e-21
-4.01951e-22
3.52766e-21
9.80571e-21
7.85888e-21
-2.1803e-20
-8.22199e-20
-1.08327e-19
5.59039e-20
5.33432e-19
1.07331e-18
7.0616e-19
-1.96361e-18
-7.11739e-18
-1.10112e-17
-4.60223e-18
2.23093e-17
6.8773e-17
1.06429e-16
7.33306e-17
-1.03579e-16
-4.49237e-16
-8.63659e-16
-1.07706e-15
-6.94083e-16
6.50384e-16
3.0712e-15
6.26132e-15
9.48991e-15
1.18202e-14
1.24748e-14
1.11774e-14
8.29113e-15
4.67537e-15
1.33025e-15
-9.90271e-16
-2.01368e-15
-1.94505e-15
-1.26886e-15
-4.87776e-16
6.90565e-17
3.03233e-16
2.88179e-16
1.61877e-16
3.82393e-17
-3.0319e-17
-4.45185e-17
-2.94373e-17
-9.20088e-18
4.12515e-18
9.33076e-18
9.94424e-18
9.30759e-18
8.89286e-18
8.82869e-18
8.87294e-18
8.89555e-18
8.89442e-18
8.89124e-18
8.89099e-18
8.89128e-18
8.89131e-18
4.43893e-37
2.06159e-36
-1.75042e-36
-2.14272e-35
-2.486e-35
1.36853e-34
4.6835e-34
-2.44506e-34
-4.28645e-33
-6.27604e-33
2.16621e-32
9.0721e-32
1.23439e-32
-6.54569e-31
-1.38514e-30
1.97134e-30
1.37704e-29
1.40051e-29
-6.57859e-29
-2.28226e-28
-3.50765e-29
1.40357e-27
3.14292e-27
-2.15623e-27
-2.37464e-26
-3.75103e-26
5.93256e-26
3.43921e-25
4.10776e-25
-1.00767e-24
-4.44778e-24
-4.49556e-24
1.31609e-23
5.25776e-23
5.32264e-23
-1.36441e-22
-5.69542e-22
-6.77277e-22
1.04453e-21
5.51299e-21
8.4434e-21
-3.70014e-21
-4.46466e-20
-9.27855e-20
-4.53088e-20
2.56724e-19
8.11099e-19
1.04746e-18
-3.79738e-19
-4.75747e-18
-1.07607e-17
-1.11021e-17
7.73502e-18
5.66994e-17
1.23207e-16
1.45858e-16
8.76422e-18
-4.11281e-16
-1.12537e-15
-1.86613e-15
-1.96023e-15
-3.61933e-16
4.06339e-15
1.20327e-14
2.32976e-14
3.63402e-14
4.8555e-14
5.69628e-14
5.92257e-14
5.45392e-14
4.39863e-14
3.01727e-14
1.6297e-14
5.07423e-15
-2.03552e-15
-5.0189e-15
-4.94697e-15
-3.31917e-15
-1.44515e-15
-9.6608e-17
5.20393e-16
5.74975e-16
3.63024e-16
1.25454e-16
-2.15867e-17
-6.79718e-17
-5.44002e-17
-2.44231e-17
-2.1854e-18
7.47118e-18
9.20103e-18
8.4148e-18
7.76944e-18
7.64722e-18
7.7061e-18
7.73836e-18
7.7368e-18
7.73281e-18
7.73265e-18
7.7329e-18
2.29964e-36
3.66899e-36
-1.89502e-35
-6.72094e-35
4.19404e-35
6.5768e-34
8.71167e-34
-3.85466e-33
-1.4409e-32
3.80794e-33
1.21462e-31
2.02657e-31
-5.39881e-31
-2.56701e-30
-1.00305e-30
1.66486e-29
3.98542e-29
-3.75296e-29
-3.47779e-28
-4.42904e-28
1.40356e-27
5.7052e-27
2.70882e-27
-2.99341e-26
-7.82011e-26
1.66331e-26
4.92381e-25
9.38904e-25
-7.79327e-25
-6.81977e-24
-1.04154e-23
1.34582e-23
8.2896e-23
1.13327e-22
-1.59424e-22
-8.99718e-22
-1.25539e-21
1.32637e-21
8.65255e-21
1.38672e-20
-5.38208e-21
-7.05971e-20
-1.42041e-19
-5.02929e-20
4.35149e-19
1.22318e-18
1.30819e-18
-1.27135e-18
-7.6741e-18
-1.43321e-17
-9.56508e-18
2.28112e-17
8.66668e-17
1.46611e-16
1.11251e-16
-1.40194e-16
-6.65479e-16
-1.32226e-15
-1.665e-15
-9.7998e-16
1.48691e-15
6.17359e-15
1.2898e-14
2.08065e-14
2.86484e-14
3.52436e-14
3.98729e-14
4.23617e-14
4.28451e-14
4.14291e-14
3.80363e-14
3.25658e-14
2.52413e-14
1.68573e-14
8.68937e-15
2.07426e-15
-2.10684e-15
-3.74088e-15
-3.43075e-15
-2.1422e-15
-7.70638e-16
1.5084e-16
5.04729e-16
4.53198e-16
2.4062e-16
4.83414e-17
-5.32465e-17
-7.67669e-17
-6.42641e-17
-4.82974e-17
-4.06611e-17
-3.96273e-17
-4.0546e-17
-4.10808e-17
-4.11043e-17
-4.10306e-17
-4.10134e-17
-4.10201e-17
-4.10223e-17
-4.10219e-17
1.90102e-36
-5.94775e-36
-2.82914e-35
5.30387e-37
2.52666e-34
4.7663e-34
-1.26516e-33
-6.47049e-33
-1.93506e-33
4.93115e-32
1.11601e-31
-1.7267e-31
-1.20895e-30
-1.06442e-30
6.98555e-30
2.17949e-29
-7.05241e-30
-1.69601e-28
-2.93925e-28
5.67396e-28
3.14291e-27
2.70879e-27
-1.48032e-26
-4.80297e-26
-7.98494e-27
2.77292e-25
6.34401e-25
-2.81658e-25
-4.25977e-24
-7.57911e-24
7.15181e-24
5.66441e-23
8.62329e-23
-1.03963e-22
-6.69057e-22
-9.77077e-22
1.06024e-21
7.04919e-21
1.11066e-20
-6.65405e-21
-6.47655e-20
-1.21274e-19
-7.78207e-21
4.853e-19
1.17857e-18
8.81072e-19
-2.44768e-18
-9.21651e-18
-1.33138e-17
6.42764e-19
4.81595e-17
1.16494e-16
1.28746e-16
-5.58823e-17
-5.44983e-16
-1.2008e-15
-1.41695e-15
-1.34081e-16
3.62521e-15
9.6494e-15
1.52829e-14
1.49125e-14
1.11516e-15
-3.22962e-14
-8.63151e-14
-1.53904e-13
-2.20338e-13
-2.67471e-13
-2.80519e-13
-2.54276e-13
-1.95632e-13
-1.20975e-13
-4.97115e-14
2.91599e-15
3.04342e-14
3.54789e-14
2.64957e-14
1.30311e-14
1.99779e-15
-3.77158e-15
-4.81784e-15
-3.27865e-15
-1.23534e-15
1.41592e-16
6.25828e-16
5.23397e-16
2.31476e-16
-3.8431e-18
-1.17411e-16
-1.4528e-16
-1.40552e-16
-1.33531e-16
-1.31366e-16
-1.3169e-16
-1.32106e-16
-1.32158e-16
-1.32113e-16
-1.32101e-16
-1.32105e-16
-1.32106e-16
-1.03539e-35
-3.54907e-35
5.8667e-35
4.21094e-34
2.71324e-34
-3.10355e-33
-8.1131e-33
1.04343e-32
8.59481e-32
8.01937e-32
-5.23593e-31
-1.63009e-30
8.25305e-31
1.37944e-29
2.09797e-29
-5.81063e-29
-2.638e-28
-1.22534e-28
1.55378e-27
3.95981e-27
-2.15624e-27
-2.99341e-26
-4.80298e-26
8.59937e-26
4.71503e-25
4.78482e-25
-1.74203e-24
-6.45228e-24
-4.07337e-24
2.66678e-23
7.99995e-23
3.47602e-23
-3.3654e-22
-9.24885e-22
-4.067e-22
3.56665e-21
1.00495e-20
6.47826e-21
-3.07236e-20
-1.0038e-19
-1.01842e-19
1.8663e-19
8.69077e-19
1.32705e-18
-2.50695e-19
-5.78184e-18
-1.32572e-17
-1.13078e-17
2.0027e-17
9.05851e-17
1.59931e-16
1.00738e-16
-2.71232e-16
-1.02876e-15
-1.82685e-15
-1.62719e-15
1.19088e-15
7.94432e-15
1.78928e-14
2.61566e-14
2.25279e-14
-7.37471e-15
-7.78283e-14
-1.96359e-13
-3.57234e-13