/*--------------------------------*- C++ -*----------------------------------*\
  =========                 |
  \\      /  F ield         | OpenFOAM: The Open Source CFD Toolbox
   \\    /   O peration     | Website:  https://openfoam.org
    \\  /    A nd           | Version:  13
     \\/     M anipulation  |
\*---------------------------------------------------------------------------*/
FoamFile
{
    format      ascii;
    class       volScalarField;
    location    "1.4";
    object      T;
}
// * * * * * * * * * * * * * * * * * * * * * * * * * * * * * * * * * * * * * //

dimensions      [0 0 0 1 0 0 0];

internalField   nonuniform List<scalar> 
10000
(
0
0
0
0
0
0
0
0
0
0
0
0
0
0
0
0
0
0
0
0
0
0
0
0
0
0
0
0
0
0
0
0
0
0
0
0
0
0
0
0
0
0
0
0
0
0
0
0
0
0
0
0
0
0
0
0
0
0
0
0
0
0
0
0
0
0
0
0
0
0
0
0
0
0
0
0
0
0
0
0
0
0
0
0
0
0
0
0
0
0
0
0
0
0
0
0
0
0
0
0
0
0
0
0
0
0
0
0
0
0
0
0
0
0
0
0
0
0
0
0
0
0
0
0
0
0
0
0
0
0
0
0
0
0
0
0
0
0
0
0
0
0
0
0
0
0
0
0
0
0
0
0
0
0
0
0
0
0
0
0
0
0
0
0
0
0
0
0
0
0
0
0
0
0
0
0
0
0
0
0
0
0
0
0
0
0
0
0
0
0
0
0
0
0
0
0
0
0
0
0
0
0
0
0
0
0
0
0
0
0
0
0
0
0
0
0
0
0
0
0
0
0
0
0
0
0
0
0
0
0
0
0
0
0
0
0
0
0
0
0
0
0
0
0
0
0
0
0
0
0
0
0
0
0
0
0
0
0
0
0
0
0
0
0
0
0
0
0
0
0
0
0
0
0
0
0
0
0
0
0
0
0
0
0
0
0
0
0
0
0
0
0
0
0
0
0
0
0
0
0
0
0
0
0
0
0
0
0
0
0
0
0
0
0
0
0
0
0
0
0
0
0
0
0
0
0
0
0
0
0
0
0
0
0
0
0
0
0
0
0
0
0
0
0
0
0
0
0
0
0
0
0
0
0
0
0
0
0
0
0
0
0
0
0
0
0
0
0
0
0
0
0
0
0
0
0
0
0
0
0
0
0
0
0
0
0
0
0
0
0
0
0
0
0
0
0
0
0
0
0
0
0
0
0
0
0
0
0
0
0
0
0
0
0
0
0
0
0
0
0
0
0
0
0
0
0
0
0
0
0
0
0
0
0
0
0
0
0
0
0
0
0
0
0
0
0
0
0
0
0
0
0
0
0
0
0
0
0
0
0
0
0
0
0
0
0
0
0
0
0
0
0
0
0
0
0
0
0
0
0
0
0
0
0
0
0
0
0
0
0
0
0
0
0
0
0
0
0
0
0
0
0
0
0
0
0
0
0
0
0
0
0
0
0
0
0
0
0
0
0
0
0
0
0
0
0
0
0
0
0
0
0
0
0
0
0
0
0
0
0
0
0
0
0
0
0
0
0
0
0
0
0
0
0
0
0
0
0
0
0
0
0
0
0
0
0
0
0
0
0
0
0
0
0
0
0
0
0
0
0
0
0
0
0
0
0
0
0
0
0
0
0
0
0
0
0
0
0
0
0
0
0
0
0
0
0
0
0
0
0
0
0
0
0
0
0
0
0
0
0
0
0
0
0
0
0
0
0
0
0
0
0
0
0
0
0
0
0
0
0
0
0
0
0
0
0
0
0
0
0
0
0
0
0
0
0
0
0
0
0
0
0
0
0
0
0
0
0
0
0
0
0
0
0
0
0
0
0
0
0
0
0
0
0
0
0
0
0
0
0
0
0
0
0
0
0
0
0
0
0
0
0
0
0
0
0
0
0
0
0
0
0
0
0
0
0
0
0
0
0
0
0
0
0
0
0
0
0
0
0
0
0
0
0
0
0
0
0
0
0
0
0
0
0
0
0
0
0
0
0
0
0
0
0
0
0
0
0
0
0
0
0
0
0
0
0
0
0
0
0
0
0
0
0
0
0
0
0
0
0
0
0
0
0
0
0
0
0
0
0
0
0
0
0
0
0
0
0
0
0
0
0
0
0
0
0
0
0
0
0
0
0
0
0
0
0
0
0
0
0
0
0
0
0
0
0
0
0
0
0
0
0
0
0
0
0
0
0
0
0
0
0
0
0
0
0
0
0
0
0
0
0
0
0
0
0
0
0
0
0
0
0
0
0
0
0
0
0
0
0
0
0
0
0
0
0
0
0
0
0
0
0
0
0
0
0
0
0
0
0
0
0
0
0
0
0
0
0
0
0
0
0
0
0
0
0
0
0
0
0
0
0
0
0
0
0
0
0
0
0
0
0
0
0
0
0
0
0
0
0
0
0
0
0
0
0
0
0
0
0
0
0
0
0
0
0
0
0
0
0
0
0
0
0
0
0
0
0
0
0
0
0
0
0
0
0
0
0
0
0
0
0
0
0
0
0
0
0
0
0
0
0
0
0
0
0
0
0
0
0
0
0
0
0
0
0
0
0
0
0
0
0
0
0
0
0
0
0
0
0
0
0
0
0
0
0
0
0
0
0
0
0
0
0
0
0
0
0
0
0
0
0
0
0
0
0
0
0
0
0
0
0
0
0
0
0
0
0
0
0
0
0
0
0
0
0
0
0
0
0
0
0
0
0
0
0
0
0
0
0
0
0
0
0
0
0
0
0
0
0
0
0
0
0
0
0
0
0
0
0
0
0
0
0
0
0
0
0
0
0
0
0
0
0
0
0
0
0
0
0
0
0
0
0
0
0
0
0
0
0
0
0
0
0
0
0
0
0
0
0
0
0
0
0
0
0
0
0
0
0
0
0
0
0
0
0
0
0
0
0
0
0
0
0
0
0
0
0
0
0
0
0
0
0
0
0
0
0
0
0
0
0
0
0
0
0
0
0
0
0
0
0
0
0
0
0
0
0
0
0
0
0
0
0
0
0
0
0
0
0
0
0
0
0
0
0
0
0
0
0
0
0
0
0
0
0
0
0
0
0
0
0
0
0
0
0
0
0
0
0
0
0
0
0
0
0
0
0
0
0
0
0
0
0
0
0
0
0
0
0
0
0
0
0
0
0
0
0
0
0
0
0
0
0
0
0
0
0
0
0
0
0
0
0
0
0
0
0
0
0
0
0
0
0
0
0
0
0
0
0
0
0
0
0
0
0
0
0
0
0
0
0
0
0
0
0
0
0
0
0
0
0
0
0
0
0
0
0
0
0
0
0
0
0
0
0
0
0
0
0
0
0
0
0
0
0
0
0
0
0
0
0
0
0
0
0
0
0
0
0
0
0
0
0
0
0
0
0
0
0
0
0
0
0
0
0
0
0
0
0
0
0
0
0
0
0
0
0
0
0
0
0
0
0
0
0
0
0
0
0
0
0
0
0
0
0
0
0
0
0
0
0
0
0
0
0
0
0
0
0
0
0
0
0
0
0
0
0
0
0
0
0
0
0
0
0
0
0
0
0
0
0
0
0
0
0
0
0
0
0
0
0
0
0
0
0
0
0
0
0
0
0
0
0
0
0
0
0
0
0
0
0
0
0
0
0
0
0
0
0
0
0
0
0
0
0
0
0
0
0
0
0
0
0
0
0
0
0
0
0
0
0
0
0
0
0
0
0
0
0
0
0
0
0
0
0
0
0
0
0
0
0
0
0
0
0
0
0
0
0
0
0
0
0
0
0
0
0
0
0
0
0
0
0
0
0
0
0
0
0
0
0
0
0
0
0
0
0
0
0
0
0
0
0
0
0
0
0
0
0
0
0
0
0
0
0
0
0
0
0
0
0
0
0
0
0
0
0
0
0
0
0
0
0
0
0
0
0
0
0
0
0
0
0
0
0
0
0
0
0
0
0
0
0
0
0
0
0
0
0
0
0
0
0
0
0
0
0
0
0
0
0
0
0
0
0
0
0
0
0
0
0
0
0
0
0
0
0
0
0
0
0
0
0
0
0
0
0
0
0
0
0
0
0
0
0
0
0
0
0
0
0
0
0
0
0
0
0
0
0
0
0
0
0
0
0
0
0
0
0
0
0
0
0
0
0
0
0
0
0
0
0
0
0
0
0
0
0
0
0
0
0
0
0
0
0
0
0
0
0
0
0
0
0
0
0
0
0
0
0
0
0
0
0
0
0
0
0
0
0
0
0
0
0
0
0
0
0
0
0
0
0
0
0
0
0
0
0
0
0
0
0
0
0
0
0
0
0
0
0
0
0
0
0
0
0
0
0
0
0
0
0
0
0
0
0
0
0
0
0
0
0
0
0
0
0
0
0
0
0
0
0
0
0
0
0
0
0
0
0
0
0
0
0
0
0
0
0
0
0
0
0
0
0
0
0
0
0
0
0
0
0
0
0
0
0
0
0
0
0
0
0
0
0
0
0
0
0
0
0
0
0
0
0
0
0
0
0
0
0
0
0
0
0
0
0
0
0
0
0
0
0
0
0
0
0
0
0
0
0
0
0
0
0
0
0
0
0
0
0
0
0
0
0
0
0
0
0
0
0
0
0
0
0
0
0
0
0
0
0
0
0
0
0
0
0
0
0
0
0
0
0
0
0
0
0
0
0
0
0
0
0
0
0
0
0
0
0
0
0
0
0
0
0
0
0
0
0
0
0
0
0
0
0
0
0
0
0
0
0
0
0
0
0
0
0
0
0
0
0
0
0
0
0
0
0
0
0
0
0
0
0
0
0
0
0
0
0
0
0
0
0
0
0
0
0
0
0
0
0
0
0
0
0
0
0
0
0
0
0
0
0
0
0
0
0
0
0
0
0
0
0
0
0
0
0
0
0
0
0
0
0
0
0
0
0
0
0
0
0
0
0
0
0
0
0
0
0
0
0
0
0
0
0
0
0
0
0
0
0
0
0
0
0
0
0
0
0
0
0
0
0
0
0
0
0
0
0
0
0
0
0
0
0
0
0
0
0
0
0
0
0
0
0
0
0
0
0
0
0
0
0
0
0
0
0
0
0
0
0
0
0
0
0
0
0
0
0
0
0
0
0
0
0
0
0
0
0
0
0
0
0
0
0
0
0
0
0
0
0
0
0
0
0
0
0
0
0
0
0
0
0
0
0
0
0
0
0
0
0
0
0
0
0
0
0
0
0
0
0
0
0
0
0
0
0
0
0
0
0
0
0
0
0
0
0
0
0
0
0
0
0
0
0
0
0
0
0
0
0
0
0
0
0
0
0
0
0
0
0
0
0
0
0
0
0
0
0
0
0
0
0
0
0
0
0
0
0
0
0
0
0
0
0
0
0
0
0
0
0
0
0
0
0
0
0
0
0
0
0
0
0
0
0
0
0
0
0
0
0
0
0
0
0
0
0
0
0
0
0
0
0
0
0
0
0
0
0
0
0
0
0
0
0
0
0
0
0
0
0
0
0
0
0
0
0
0
0
0
0
0
0
0
0
0
0
0
0
0
0
0
0
0
0
0
0
0
0
0
0
0
0
0
0
0
0
0
0
0
0
0
0
0
0
0
0
0
0
0
0
0
0
0
0
0
0
0
0
0
0
0
0
0
0
0
0
0
0
0
0
0
0
0
0
0
0
0
0
0
0
0
0
0
0
0
0
0
0
0
0
0
0
0
0
0
0
0
0
0
0
0
0
0
0
0
0
0
0
0
0
0
0
0
0
0
0
0
0
0
0
0
0
0
0
0
0
0
0
0
0
0
0
0
0
0
0
0
0
0
0
0
0
0
0
0
0
0
0
0
0
0
0
0
0
0
0
0
0
0
4.54046e-321
-4.00687e-321
-1.52172e-321
4.01675e-321
-9.12638e-320
1.03525e-318
-7.04782e-318
3.05453e-317
-2.45073e-316
8.35944e-317
1.13646e-316
-1.46493e-316
1.34865e-315
-6.94295e-315
-2.47373e-316
-1.9256e-317
3.25579e-315
2.76981e-315
1.66995e-315
-4.965e-315
7.17208e-316
7.69228e-315
-2.14977e-315
-2.58149e-315
-8.59147e-316
2.06496e-316
3.48811e-316
-6.67797e-315
6.02266e-315
2.23869e-315
-8.51082e-316
1.66002e-315
-1.34102e-315
-9.2542e-316
-2.5965e-316
1.61676e-316
-1.13196e-316
-9.92809e-317
7.27059e-317
5.03e-317
2.38491e-317
-2.85089e-317
-1.14614e-317
4.37207e-318
-1.4408e-318
4.23172e-319
1.60813e-319
7.75999e-319
-4.34664e-319
-2.98015e-319
-2.65214e-320
2.54444e-320
1.36164e-320
-3.21637e-321
3.45352e-321
3.7549e-322
0
0
0
0
0
0
0
0
0
0
0
0
0
0
0
0
0
0
0
0
0
0
0
0
0
-1.59089e-321
2.72872e-320
-2.94349e-319
3.57162e-318
-3.63387e-317
3.50141e-316
-2.34593e-315
1.65551e-314
-1.76731e-313
1.43395e-312
-1.02695e-311
4.5857e-311
-4.36939e-310
2.37365e-309
-9.99119e-309
3.13723e-308
-1.28515e-307
1.2178e-306
-1.09666e-306
4.02282e-306
-2.21241e-306
-1.75569e-306
2.79365e-306
-4.87005e-305
5.59596e-304
-4.2493e-303
2.68465e-302
-1.92894e-301
1.13101e-300
-4.11831e-300
-5.35634e-300
1.86289e-299
-1.24005e-300
-5.46544e-300
-3.20766e-300
-1.65039e-300
-7.99876e-301
1.9434e-300
-1.96969e-300
-3.55387e-301
4.52219e-300
-2.74674e-301
-1.33443e-299
1.02703e-299
1.79898e-299
-6.60881e-300
-1.02911e-299
-1.1251e-300
-2.2642e-301
-8.88064e-302
2.05924e-300
1.04027e-300
-2.32551e-301
-9.03555e-301
-3.18277e-301
6.09267e-302
1.0431e-301
4.0235e-302
-1.36049e-302
-2.45657e-302
-1.40924e-302
2.01539e-303
4.4664e-303
1.84621e-303
2.12919e-305
7.14743e-304
-8.40904e-304
-1.14568e-304
5.73805e-305
9.62441e-305
3.79401e-306
-2.94918e-305
-1.23579e-305
-4.66202e-307
1.23635e-306
5.26883e-307
-8.25123e-309
-5.1713e-311
4.27485e-308
-9.97078e-308
0
0
0
0
3.60668e-322
-7.49004e-321
1.36189e-319
-2.36456e-318
1.04063e-317
-6.3316e-316
6.76686e-315
-1.06753e-313
8.54921e-313
-6.57136e-312
1.61209e-312
3.74268e-311
1.97253e-311
-3.379e-311
7.30541e-310
-2.1008e-308
4.49773e-307
-5.44355e-306
6.20851e-305
-6.87213e-304
7.71459e-303
-8.9572e-302
9.73078e-301
-6.80634e-300
4.96129e-299
-4.87e-298
3.19049e-297
-3.02278e-296
2.1752e-295
-1.38129e-294
7.16596e-294
-2.09042e-293
1.89796e-292
-1.11856e-291
4.62151e-291
-1.44155e-291
3.61126e-292
-1.12058e-290
4.07811e-290
2.66112e-290
-1.35358e-289
1.05098e-288
-7.82627e-288
8.58561e-287
-3.3715e-286
-5.75936e-286
1.12122e-284
-7.84246e-285
-4.91227e-285
-2.68469e-286
1.3965e-285
9.17449e-286
1.42119e-285
-6.53127e-285
4.95481e-286
3.00581e-285
-8.50681e-286
1.22935e-284
1.9103e-284
-1.22658e-284
-1.31095e-284
-5.06183e-285
4.0767e-286
-2.65559e-285
2.78442e-285
1.53888e-285
1.63784e-286
-2.25398e-286
-4.06943e-286
1.2476e-286
8.66163e-287
2.62575e-287
1.20956e-287
-1.33297e-287
-1.30153e-287
-2.73674e-288
2.23285e-288
1.54714e-288
2.15136e-289
-1.19295e-289
3.1776e-290
-4.26478e-289
3.32577e-289
8.85075e-290
3.33364e-290
-4.57576e-290
-2.86992e-290
-4.93072e-291
1.36781e-291
9.82474e-292
1.78113e-292
-4.97633e-293
-2.79904e-293
3.49837e-293
-1.57168e-292
5.14645e-293
-2.50358e-311
8.08448e-310
-9.01591e-309
1.59849e-307
-1.45013e-306
2.45977e-305
-4.27516e-304
3.37769e-303
-5.39497e-302
4.52384e-301
-7.02455e-300
4.75282e-299
-6.98178e-298
1.07042e-296
-1.08523e-296
6.17805e-296
-3.26849e-296
-1.32513e-295
1.67714e-294
-2.42105e-293
3.41585e-292
-6.02254e-293
1.17518e-292
-3.08679e-290
7.30669e-289
-1.30417e-287
-1.88043e-286
2.04015e-285
-1.90005e-284
1.6782e-283
-1.38207e-282
7.49564e-282
-6.53893e-281
5.62292e-280
-4.65209e-279
3.73248e-278
-6.72149e-278
4.61589e-277
-3.2578e-276
7.35083e-276
-1.38769e-276
2.76438e-276
-2.66802e-276
-2.23766e-274
3.12756e-274
-6.4775e-274
4.52171e-273
-1.46055e-272
-1.78298e-272
8.7715e-271
-6.03143e-270
1.04828e-269
6.47245e-269
-1.36103e-269
-3.35051e-269
-2.27183e-269
-6.87098e-270
2.56163e-270
1.74287e-271
-9.71153e-271
1.88657e-269
3.76894e-271
-1.0462e-269
-4.51032e-270
8.29402e-270
-1.89774e-269
2.24149e-270
3.89556e-270
3.09931e-270
8.35115e-271
1.92685e-271
6.40534e-271
3.1605e-271
9.93769e-272
1.36998e-272
2.79954e-272
-2.35646e-272
-1.04052e-272
-8.29869e-274
9.68623e-274
6.99602e-274
-2.20977e-274
-9.83357e-275
1.49881e-275
-2.3622e-275
3.31292e-274
-8.73984e-275
-1.34024e-274
-6.17133e-275
-1.19896e-275
3.68576e-276
-1.21388e-275
7.89174e-276
5.00733e-276
1.2143e-276
-4.63886e-278
2.09929e-278
-2.65335e-277
5.83051e-279
3.76247e-278
4.99701e-296
-7.08122e-295
1.04132e-293
-1.59963e-292
2.37893e-291
-3.35804e-290
4.41464e-289
-5.19817e-288
4.93253e-287
-7.74841e-286
7.23525e-285
-1.09385e-283
1.67467e-282
-1.68688e-281
1.27423e-280
-1.01966e-280
4.06746e-280
-6.12693e-279
3.83073e-279
4.81057e-278
-5.24198e-277
6.74647e-276
-8.60201e-275
8.15603e-274
-6.7609e-273
4.40188e-272
-5.09568e-271
1.46068e-270
-1.64595e-269
2.05032e-268
3.28995e-268
-1.7936e-267
2.42058e-265
-1.81245e-264
7.19887e-264
-2.53584e-263
1.87137e-262
1.91526e-262
-1.1157e-261
4.26526e-261
-2.63739e-260
1.30213e-259
-1.8008e-259
3.06878e-259
6.78441e-260
-1.75014e-260
-4.07493e-259
-3.47732e-259
2.01562e-257
-2.47728e-256
2.07321e-255
-1.29807e-254
2.95939e-254
2.52703e-254
-3.7233e-254
-2.3278e-254
-1.34181e-255
8.48245e-255
8.86005e-255
2.28423e-254
-3.09978e-255
-8.52041e-255
-3.87989e-254
-1.34181e-254
2.7584e-254
2.62951e-254
1.51855e-256
-6.2056e-255
-5.64918e-255
-2.74765e-255
8.82003e-256
1.02498e-255
5.99488e-256
-6.00011e-258
-1.07281e-256
-4.30705e-257
-6.37797e-259
2.75307e-258
-1.91064e-258
-2.00304e-258
-5.48903e-259
4.14541e-260
-2.99395e-258
2.55874e-258
9.36044e-259
-1.42318e-259
5.67845e-259
-8.25352e-259
-1.39964e-260
9.12371e-260
6.59711e-261
1.39711e-260
1.86615e-260
6.50175e-261
-1.77837e-261
-2.21055e-261
-6.67496e-262
2.08017e-262
2.08712e-262
5.80594e-265
-7.14888e-283
2.81036e-280
-2.82545e-279
4.80644e-278
-8.34421e-277
1.42305e-275
-2.38516e-274
3.92765e-273
-6.35214e-272
5.72494e-271
-8.62754e-270
1.32022e-268
-9.29281e-268
1.29693e-266
-1.87063e-265
2.63827e-264
-1.70385e-263
8.9405e-264
5.72712e-264
-1.36113e-263
1.87525e-262
-2.35037e-261
2.87887e-260
-3.44337e-259
4.01849e-258
-4.57171e-257
5.06531e-256
-5.45969e-255
3.14272e-254
-3.04561e-253
2.98331e-252
-2.80923e-251
-3.51254e-251
4.08852e-250
-3.16744e-249
2.47882e-248
-1.91189e-247
2.9178e-248
-5.14337e-247
-1.37378e-245
5.99405e-245
-3.49827e-245
4.41803e-244
-5.39356e-243
1.56854e-242
-3.59939e-242
1.38602e-241
-3.53926e-241
1.34097e-241
2.41894e-241
-6.0307e-241
2.82529e-240
-3.64155e-240
-2.92065e-239
1.79263e-239
4.22065e-240
1.22086e-239
1.01154e-239
2.61466e-239
-2.82127e-239
-3.57209e-239
-1.53866e-239
2.16639e-239
2.07267e-239
4.78937e-240
-3.26939e-240
-3.46709e-240
-1.87679e-240
-6.39093e-241
6.78462e-241
5.03011e-241
1.50921e-241
-8.74627e-242
1.58503e-242
1.14369e-242
-5.97507e-244
-3.73775e-243
-2.23573e-243
-5.43491e-244
1.26775e-244
1.51763e-244
4.1863e-244
-5.1796e-243
3.04158e-243
2.02918e-243
8.16989e-244
-5.28831e-244
-4.84254e-244
-1.28279e-244
3.81594e-245
3.9152e-245
1.13575e-245
2.97404e-246
-3.70198e-246
-1.58426e-246
-1.61274e-247
1.07281e-247
5.20885e-248
-4.92911e-248
3.60728e-248
3.08182e-266
-2.7131e-265
3.49719e-264
-2.01116e-263
-3.62032e-262
1.50677e-260
-2.54724e-259
3.78751e-258
-4.91033e-257
7.57664e-256
-8.89577e-255
1.18235e-253
-1.53806e-252
1.65201e-251
-1.90672e-250
2.18269e-249
-2.35375e-248
1.93895e-247
-9.92461e-247
7.21439e-246
-6.65617e-245
5.66102e-244
-3.8928e-243
-1.64243e-242
8.64232e-243
1.33402e-241
-1.26072e-241
-2.89922e-240
6.44484e-239
-5.70046e-238
4.45986e-237
-3.25935e-236
2.77789e-235
-9.96481e-235
7.3213e-234
1.10048e-234
-1.62004e-232
1.1776e-231
-2.91808e-231
4.15568e-231
2.91363e-231
6.38505e-230
-7.2162e-230
-1.53828e-228
5.78132e-228
-1.05998e-227
6.02821e-227
-2.91888e-226
4.82232e-225
-9.26919e-225
-1.27057e-224
2.32573e-224
5.97737e-225
-1.59141e-224
1.16961e-225
-9.32041e-225
-1.03062e-224
1.34997e-224
2.28162e-224
9.97488e-225
-8.03248e-225
-1.31263e-224
-7.49084e-225
4.71944e-226
1.96194e-225
2.36993e-225
7.3831e-226
8.87078e-227
-4.55215e-226
-2.40787e-226
3.91197e-227
-6.60214e-227
-9.06569e-227
1.78844e-227
3.65144e-227
2.04546e-227
-3.8318e-228
-2.61214e-227
1.78721e-227
1.24205e-227
9.95873e-228
-9.54963e-228
-6.31141e-228
-1.60859e-228
-8.2708e-230
4.05046e-229
4.153e-229
3.95091e-230
-5.19781e-230
-3.56651e-230
-9.89864e-231
2.40179e-231
4.49378e-231
2.44019e-231
-4.61846e-232
-8.02915e-232
-2.24138e-232
7.95899e-233
8.76406e-233
6.79282e-234
-3.45011e-251
2.65917e-250
-4.47262e-249
7.62519e-248
-9.61885e-247
2.35492e-247
7.39088e-245
-1.2138e-243
1.88748e-242
-3.02329e-241
2.9973e-240
-4.30038e-239
6.19239e-238
-8.72685e-237
9.58665e-236
-1.27868e-234
1.27786e-233
-1.62334e-232
1.00412e-231
-4.49611e-231
5.00292e-230
-5.87088e-229
6.68506e-228
4.62177e-227
-2.19094e-227
-9.44023e-227
7.68301e-226
-7.56096e-225
-1.49678e-224
1.79877e-223
-1.58204e-222
1.36444e-221
-2.91811e-220
1.03445e-219
-4.17431e-219
2.88761e-218
1.66828e-217
-1.1779e-216
2.03742e-216
-1.30229e-215
2.33746e-215
-1.66183e-214
3.88918e-214
-1.24118e-213
-3.49102e-213
1.03801e-213
-1.30588e-212
6.5454e-211
-5.39845e-210
1.32204e-210
5.85808e-210
-2.2389e-209
9.8114e-210
7.41508e-210
-1.00474e-209
5.58367e-210
1.8854e-209
7.70162e-210
-4.53408e-210
-1.07714e-209
-7.37928e-210
-1.03682e-210
1.33695e-210
2.31026e-210
1.36893e-210
3.31691e-212
5.34295e-212
-4.71434e-211
-1.34047e-211
-9.13472e-212
-7.68249e-212
-1.46222e-213
4.3598e-212
8.5422e-213
-2.3066e-213
-2.07153e-212
-1.11642e-212
2.97875e-212
6.09485e-213
-3.78164e-213
-5.99602e-213
2.25219e-214
9.02731e-215
-3.75931e-214
6.47517e-214
2.5053e-214
-2.87429e-216
-3.1196e-215
-1.56283e-215
-8.30333e-217
1.50553e-216
2.66011e-216
1.2227e-216
-8.39612e-217
-6.78114e-217
8.33763e-218
1.04109e-217
4.96248e-218
-6.50883e-219
-7.5577e-219
-4.47623e-236
4.82053e-235
-5.42771e-234
7.08792e-233
-1.1536e-231
1.51483e-230
-1.83428e-229
1.12666e-228
-3.1785e-228
-3.46728e-226
8.16979e-225
-7.84649e-224
5.04643e-223
-5.52302e-222
9.41709e-221
-9.24907e-220
7.10393e-219
-7.82513e-218
1.62855e-216
-1.15329e-215
1.0901e-214
-1.0386e-213
1.3545e-212
-1.21821e-211
1.26915e-210
-8.41282e-210
3.42484e-209
-1.94011e-209
2.62195e-207
-1.7094e-207
-1.0414e-206
4.03138e-206
-3.00031e-205
-6.79919e-205
1.18497e-203
-8.04687e-203
2.04398e-202
-1.13038e-201
6.10547e-201
-1.47196e-200
1.06128e-200
-1.17752e-199
2.62642e-199
-1.33721e-198
-1.26663e-198
-1.9747e-198
6.74551e-197
-5.48797e-196
2.98357e-195
-3.61685e-195
-7.47e-195
1.34791e-194
6.25668e-195
-2.08791e-195
-9.98507e-195
-5.51988e-195
7.0931e-196
3.39731e-195
2.60809e-195
9.04775e-196
6.49222e-197
4.62231e-196
-1.38178e-195
-7.65526e-196
6.51756e-197
3.05441e-197
3.83077e-196
-2.51111e-196
1.10808e-196
1.08194e-196
-3.15471e-197
-2.09093e-197
3.00813e-197
3.09809e-197
1.18336e-197
-5.5137e-197
6.92794e-197
3.52626e-198
-2.58541e-197
-3.58924e-198
7.13012e-199
-3.79976e-198
-4.46972e-198
-1.86595e-198
2.49195e-199
6.07187e-199
9.33561e-200
-2.06665e-201
-3.33519e-200
2.58387e-201
-3.10459e-201
3.17028e-201
2.36007e-201
5.17215e-202
-5.57557e-202
-3.38765e-202
-5.46723e-203
1.70384e-203
1.23099e-203
9.67027e-205
-2.3838e-221
3.05416e-220
-4.07701e-219
6.62986e-218
-7.84767e-217
1.22422e-215
-1.9048e-214
2.90645e-213
-4.34915e-212
6.37959e-211
-9.16939e-210
1.29077e-208
2.43058e-208
-4.54138e-207
-7.43655e-206
1.0398e-204
-1.93317e-204
1.50835e-202
-1.88918e-201
4.68414e-201
-4.35738e-200
-4.80946e-199
5.70528e-198
-1.85389e-198
-1.01072e-195
1.04272e-194
-6.43808e-194
5.76864e-193
-5.1392e-192
3.19972e-192
-9.54088e-192
8.92182e-191
-6.67223e-190
-1.3638e-189
1.10484e-188
-6.73249e-188
3.89985e-187
-1.36417e-186
3.07884e-186
-1.13684e-185
1.30339e-185
-1.29084e-184
4.23416e-184
-1.80297e-183
5.41385e-183
1.44638e-182
-6.39447e-182
6.28435e-181
-1.48014e-180
5.96328e-181
7.93439e-180
-6.16169e-180
-2.68933e-180
-2.85161e-180
-5.65093e-181
7.23046e-180
6.83411e-181
-1.35462e-180
-5.29464e-180
8.66553e-181
2.03106e-180
-2.6562e-180
-1.51228e-181
1.88105e-180
1.94812e-180
4.61426e-181
-2.80668e-181
-5.17082e-181
-2.87248e-181
-5.61427e-182
6.85042e-182
6.07709e-182
1.61437e-182
-5.25188e-183
-1.61519e-182
9.26388e-182
-1.12395e-181
2.06158e-182
1.67896e-182
-2.5353e-183
-6.31812e-183
-3.01885e-183
-2.38133e-183
2.07074e-183
6.05065e-184
-1.31394e-184
1.1411e-184
-1.5183e-185
2.29747e-185
-1.03369e-185
-9.7616e-186
-4.0807e-186
1.21207e-186
5.75938e-187
1.45455e-187
-7.25767e-189
-1.98462e-188
-3.95599e-189
-2.40354e-189
5.95841e-190
1.86514e-206
-2.33035e-205
3.82718e-204
-6.43367e-203
8.88738e-202
-1.78173e-200
2.74472e-199
-4.10346e-198
8.01027e-197
-8.57434e-196
1.6315e-194
-2.27635e-193
1.70126e-192
-3.00889e-191
2.95152e-190
-2.50308e-189
3.00981e-188
-2.2537e-187
3.90618e-186
-3.22654e-185
2.1822e-184
-2.28392e-183
1.2957e-182
-2.2521e-181
1.51364e-180
-7.79734e-180
6.91937e-179
-2.56704e-178
4.59375e-177
-2.23616e-176
6.54537e-176
1.68084e-175
-1.38783e-174
9.25198e-174
3.07829e-174
-3.21527e-173
1.48279e-172
-6.7019e-172
2.21585e-171
-1.88322e-171
-3.82085e-170
6.9157e-170
-2.6797e-169
1.14762e-168
-2.63927e-168
-7.60299e-168
3.19137e-167
-1.40932e-166
3.29208e-166
1.01048e-165
-6.95542e-165
1.39757e-166
4.01242e-165
4.3887e-165
8.7587e-166
-5.56473e-165
-4.91242e-165
2.2914e-165
4.59822e-165
2.39473e-165
9.29625e-166
-1.70512e-165
-1.63883e-165
-6.56403e-166
8.52549e-167
2.99193e-166
2.00936e-166
5.57501e-167
-1.96922e-167
-2.89974e-167
1.58095e-167
-4.04664e-166
3.26773e-166
1.77589e-166
1.37635e-166
-1.43744e-166
-1.34321e-166
-1.43087e-168
-4.06815e-168
1.65085e-167
7.31001e-168
1.63244e-169
-3.80942e-168
-1.68773e-168
-1.85388e-169
3.4143e-169
2.23632e-169
9.15151e-172
-2.2181e-170
-1.45706e-170
-1.0414e-171
2.01791e-171
7.13659e-172
3.79169e-172
-8.5167e-173
-6.07671e-173
-9.03633e-174
3.82956e-174
1.06752e-174
4.70087e-175
4.39606e-192
-5.16347e-191
-5.99627e-190
2.98495e-188
-9.2443e-187
1.89129e-185
-2.85978e-184
4.49204e-183
-6.89829e-182
1.00258e-180
-1.26876e-179
1.53723e-178
-1.91626e-177
2.20786e-176
-2.58811e-175
2.954e-174
-3.05499e-173
3.04213e-172
-2.92485e-171
2.96275e-170
-2.91156e-169
2.47351e-168
-2.23533e-167
1.70364e-166
-1.40246e-165
1.10323e-164
-8.12128e-164
5.74401e-163
-3.7496e-162
2.33739e-161
-1.42076e-160
7.80749e-160
-4.24807e-159
1.40847e-158
-5.90856e-158
2.01775e-157
-7.35226e-157
2.05051e-156
-2.23009e-156
-2.24977e-156
4.19494e-155
-1.8771e-154
6.8036e-154
-1.23002e-153
2.62168e-154
1.39801e-152
-9.76021e-152
3.42527e-151
-2.76534e-151
-1.92395e-150
4.68585e-150
1.62486e-150
-3.63661e-150
-4.12011e-150
-1.25303e-150
1.90782e-150
3.62245e-150
1.55321e-150
2.03717e-151
-7.29335e-151
-1.37368e-150
-1.23977e-150
-3.79237e-151
-3.10917e-151
6.55696e-151
8.31025e-151
9.08063e-151
2.20553e-151
-1.31966e-150
-8.72023e-151
2.43579e-151
6.91163e-151
5.08004e-151
-1.11787e-151
-2.75574e-151
-1.53297e-151
-8.2649e-153
4.19769e-152
3.10376e-152
6.66081e-153
-5.56189e-153
-4.53856e-153
-1.01824e-153
3.35384e-154
3.76652e-154
1.10215e-154
-2.22519e-155
-3.0045e-155
-9.30504e-156
8.29091e-157
1.04946e-156
2.14906e-156
-4.25159e-157
-4.04838e-157
-9.72491e-158
1.43197e-158
2.91975e-158
7.32849e-159
-3.33698e-159
-2.15286e-159
-5.90731e-176
1.58465e-175
-2.14164e-174
3.32791e-173
-5.04835e-172
2.51817e-171
-3.336e-170
4.76374e-169
-6.63924e-168
-1.27658e-166
1.85621e-165
-2.23259e-164
2.86149e-163
-3.92118e-162
4.83267e-161
-5.31318e-160
5.62374e-159
-5.73853e-158
5.6249e-157
-6.02169e-156
6.30289e-155
-5.60494e-154
5.47968e-153
-4.48003e-152
4.09651e-151
-3.65054e-150
2.60531e-149
-2.12984e-148
1.34355e-147
-7.43253e-147
5.30438e-146
-2.33817e-145
1.48405e-144
-5.23014e-144
2.88965e-143
-6.07175e-143
2.71413e-142
-1.08235e-141
5.23775e-142
1.23265e-141
-1.49397e-140
6.39475e-140
-3.12053e-139
2.82704e-139
5.34872e-140
-2.19058e-138
1.83056e-137
-4.4628e-137
-5.59362e-138
4.98156e-136
-6.88662e-136
-8.557e-136
6.9276e-136
3.89936e-136
4.19116e-136
5.81704e-136
8.47508e-137
3.00285e-136
-4.53371e-136
-7.32427e-136
-4.95229e-136
-6.0295e-137
-4.91898e-136
6.69387e-136
4.00853e-136
4.25567e-136
-4.59397e-136
-6.9848e-136
-8.61469e-137
4.54473e-136
3.49947e-136
2.86674e-137
-1.44983e-136
-1.06957e-136
-2.78952e-137
1.78289e-137
1.92631e-137
6.84008e-138
-1.28488e-138
-2.14587e-138
-9.25936e-139
2.57683e-140
1.94088e-139
8.51001e-140
7.58337e-141
-1.02218e-140
-5.89572e-141
-8.49377e-142
6.77944e-142
2.97009e-142
1.35786e-141
-8.10219e-142
-4.23932e-142
-5.536e-143
2.94668e-143
1.54322e-143
1.07819e-144
-1.64904e-144
-6.86456e-145
2.26975e-146
-6.16303e-161
7.12559e-160
4.70045e-159
-8.18989e-158
-1.1238e-156
1.79358e-155
-2.55884e-154
3.58406e-153
-4.91325e-152
-4.0589e-153
4.63786e-151
-5.77098e-150
7.25859e-149
-8.90789e-148
1.06655e-146
-1.24501e-145
1.41588e-144
-1.56744e-143
1.6877e-142
-1.76579e-141
1.79343e-140
-1.76626e-139
1.68471e-138
-1.55424e-137
1.3848e-136
-1.18962e-135
9.83452e-135
-7.80676e-134
5.93533e-133
-4.30869e-132
2.97538e-131
-1.442e-130
8.74664e-130
-5.03565e-129
2.04714e-128
-7.16277e-128
1.72362e-127
-5.64345e-127
3.95945e-128
3.12521e-126
-1.25691e-125
4.37039e-125
-1.84189e-124
6.9027e-125
-1.76202e-124
-6.56304e-124
7.86407e-123
8.2153e-123
4.17556e-122
-2.79954e-121
2.0047e-121
5.87699e-121
-7.47224e-122
-5.82756e-121
-5.83894e-121
-8.51712e-122
2.36708e-121
3.33837e-121
9.46999e-121
3.33817e-121
1.83935e-121
-9.82762e-121
-1.27594e-120
-4.19822e-121
6.5224e-121
8.06614e-121
3.49281e-121
-1.91799e-121
-3.43439e-121
-5.60869e-123
7.0668e-122
6.4935e-122
2.1652e-122
-6.10816e-123
-1.03327e-122
-4.78692e-123
-2.48634e-124
9.93181e-124
6.01469e-124
1.0568e-124
-6.93561e-125
-5.52866e-125
-1.35098e-125
3.76176e-126
4.08827e-126
1.17011e-126
-1.67835e-127
-2.57265e-127
-7.05251e-128
-1.28184e-127
1.58375e-126
-1.39978e-125
5.01053e-126
4.77155e-126
3.28652e-126
1.499e-127
-4.55028e-127
-2.90583e-127
1.76224e-128
4.68179e-128
-3.84287e-145
3.54602e-144
-3.61258e-143
5.26816e-142
-6.52402e-141
8.55181e-140
-1.10133e-138
1.2512e-137
-1.49284e-136
1.72562e-135
-2.19782e-134
2.05868e-133
-1.58547e-132
1.83966e-131
-9.63248e-131
1.02454e-129
-7.09546e-129
7.38065e-128
-7.70403e-127
6.23349e-126
-4.5059e-125
2.75588e-124
-2.46634e-123
2.19088e-122
-8.54648e-122
-1.80337e-121
5.60192e-120
-4.38127e-119
3.17653e-118
-1.88957e-117
1.13336e-116
-6.38483e-116
2.96786e-115
-1.3824e-114
5.73605e-114
-2.84196e-113
1.01665e-112
-1.93777e-112
-2.13007e-112
4.24316e-111
-2.32069e-110
7.89712e-110
-9.25481e-110
1.38176e-109
6.6486e-109
-3.92479e-108
9.85535e-108
-8.56166e-108
-4.04952e-107
1.14387e-106
-3.59998e-107
-2.58722e-106
-5.19786e-107
3.14471e-106
5.11192e-106
-2.36141e-106
-1.03377e-105
-8.08326e-106
3.35494e-106
1.26551e-105
1.15238e-105
2.642e-106
-5.28592e-106
-6.94237e-106
-3.61113e-106
-9.3309e-107
1.48444e-106
1.03422e-106
-1.95998e-107
8.67539e-107
7.22216e-108
-2.70037e-106
-6.20262e-107
5.95121e-107
1.23059e-106
9.29287e-107
-3.41146e-107
-6.53677e-107
-5.16927e-108
8.01166e-108
1.69197e-107
6.83503e-108
-6.64996e-108
-5.83301e-108
-5.81437e-109
2.00162e-108
1.35483e-108
1.42427e-109
-1.32601e-109
-1.89245e-109
-3.59568e-110
1.62862e-110
1.67638e-110
6.00538e-111
-2.90765e-111
-2.22803e-111
-5.14543e-112
2.71458e-112
1.85274e-112
1.17028e-113
1.77792e-130
-1.94764e-129
1.8527e-128
-2.63398e-127
1.57995e-126
-2.07149e-125
2.84418e-124
-3.81178e-123
4.99514e-122
-1.21851e-120
1.55816e-119
-1.00004e-118
1.13852e-117
-1.32406e-116
8.95573e-116
-9.52653e-115
3.63637e-114
-3.44507e-113
3.50823e-112
-3.44251e-111
3.27275e-110
-3.01002e-109
2.67452e-108
-2.29233e-107
1.89199e-106
-8.687e-106
3.95352e-105
3.71867e-105
-3.51416e-104
2.2115e-103
-1.38148e-102
8.05736e-102
-4.36544e-101
2.16493e-100
9.25459e-100
3.90716e-99
-1.09215e-98
9.86894e-99
1.29253e-97
-1.21936e-96
6.79527e-96
-2.00248e-95
2.17852e-95
-2.41096e-95
-1.70164e-94
5.60038e-94
-1.62646e-93
-2.19926e-94
1.91604e-92
-5.01079e-92
-3.87054e-92
1.61638e-91
6.20948e-92
-1.22526e-91
-1.96552e-91
-4.50378e-92
2.13864e-91
3.45563e-91
2.38254e-91
-5.77102e-93
-1.95926e-91
-2.29548e-91
-1.44387e-91
-3.92645e-92
-1.36594e-94
1.28711e-91
-5.52831e-91
3.94808e-91
9.80718e-92
-9.50141e-92
-1.7038e-91
3.47903e-92
1.49084e-91
7.38842e-92
6.32818e-93
-6.65492e-92
-7.29166e-94
1.6343e-92
1.06237e-92
1.33115e-92
-4.20206e-93
-9.70342e-93
-1.45195e-93
1.95885e-93
1.71063e-93
7.57208e-94
-1.68486e-94
-3.8374e-94
-1.39554e-94
-1.01787e-95
3.07788e-95
1.30532e-95
3.88227e-97
-1.73653e-96
-8.85675e-97
-1.14772e-98
1.35932e-97
5.24158e-98
-3.49246e-100
-6.48754e-99
-2.2215e-115
2.36594e-114
-4.22104e-113
4.92433e-112
-5.98899e-111
8.14871e-110
-7.91716e-109
1.01809e-107
-1.30342e-106
1.89232e-105
-2.02574e-104
2.05276e-103
-1.60958e-102
1.35321e-101
-1.04051e-100
1.48119e-99
-1.55976e-98
1.25516e-97
-6.418e-97
5.81519e-96
-5.3454e-95
3.63013e-94
-2.3467e-93
9.40302e-93
-7.11711e-92
5.45688e-91
-3.58887e-90
2.22718e-89
-1.16317e-88
8.13746e-88
-4.83124e-87
2.66127e-86
-1.03547e-85
4.24367e-85
-1.75222e-84
5.29035e-84
-1.111e-83
-4.61262e-84
1.34017e-82
-5.8226e-82
1.78199e-81
-8.2401e-81
1.35393e-80
4.19863e-82
-6.7327e-80
1.57709e-79
-6.53028e-80
1.6494e-79
-7.39129e-78
1.02391e-77
2.26734e-77
-4.06206e-77
-5.9873e-79
3.26484e-78
-8.70889e-77
-1.0458e-76
1.43618e-76
4.15761e-76
2.60425e-76
-4.39494e-76
-1.04096e-75
-8.42291e-76
3.65656e-77
9.91983e-76
1.21363e-75
5.81494e-76
-2.81066e-76
-5.53507e-76
-4.27854e-76
-3.20505e-77
1.05324e-76
9.80764e-77
-1.56456e-76
-1.00159e-78
5.57731e-77
5.78158e-77
3.14953e-77
2.54677e-77
-1.6101e-77
-2.00872e-77
-8.53386e-78
9.97003e-79
3.36975e-78
2.00993e-78
2.0186e-79
-3.92572e-79
-3.00011e-79
-6.45145e-80
3.23742e-80
2.94866e-80
8.3931e-81
-2.6267e-81
-2.30687e-81
-6.4555e-82
1.42104e-82
1.58837e-82
3.86824e-83
-5.00274e-84
-8.68256e-84
-1.34888e-84
-1.62345e-100
1.72192e-99
-2.59672e-98
3.69874e-97
-5.3131e-96
6.74655e-95
-8.53753e-94
1.02223e-92
-1.18776e-91
1.33958e-90
-1.52546e-89
1.6934e-88
-1.90753e-87
1.91911e-86
-1.7578e-85
1.61439e-84
-1.42004e-83
1.28139e-82
-1.11685e-81
7.68241e-81
-4.94545e-80
3.17708e-79
-2.17392e-78
1.38732e-77
-3.24236e-77
1.7547e-76
-1.1667e-75
6.86918e-75
-4.12628e-74
2.23608e-73
-1.06171e-72
4.84642e-72
-2.45026e-71
9.79399e-71
-3.34785e-70
8.03228e-70
-7.65693e-70
-5.07577e-69
5.08414e-68
-2.68947e-67
9.51135e-67
-2.29773e-66
2.03902e-66
7.56803e-66
-4.95788e-65
9.29376e-65
3.71959e-65
-8.71295e-64
2.47898e-63
-5.23082e-64
-9.296e-63
5.34603e-63
1.93676e-62
2.86018e-62
-4.47864e-62
-1.42512e-61
-8.94996e-62
1.303e-61
3.22679e-61
2.33818e-61
-5.70948e-62
-3.19498e-61
-3.23185e-61
-1.13728e-61
9.86784e-62
2.49089e-61
1.66014e-61
9.73013e-62
-2.58843e-61
2.29902e-62
2.9934e-61
8.94974e-62
-1.48176e-61
-1.70588e-61
-1.34834e-61
-3.26588e-62
2.64486e-62
3.95373e-62
1.94746e-62
2.51781e-63
-4.09089e-63
-3.14602e-63
-9.02621e-64
2.31081e-64
3.29147e-64
1.38012e-64
5.94416e-66
-2.59645e-65
-1.41448e-65
-1.98912e-66
1.69466e-66
1.07729e-66
1.83869e-67
-9.94312e-68
-7.03431e-68
-1.16742e-68
6.11912e-69
4.18978e-69
5.74365e-70
-4.08134e-70
-1.94853e-86
1.95635e-85
-2.74108e-84
3.74901e-83
8.54106e-82
-1.20066e-80
1.53068e-79
-1.91094e-78
2.32841e-77
-2.76729e-76
3.20579e-75
-3.61723e-74
3.97225e-73
-4.24182e-72
4.40079e-71
-4.43151e-70
4.32672e-69
-4.09131e-68
3.74219e-67
-2.60162e-66
2.18723e-65
-1.79766e-64
1.41821e-63
-1.07337e-62
5.49542e-63
-1.56975e-62
1.29401e-61
-8.04878e-61
4.81303e-60
-2.70181e-59
1.415e-58
-6.84391e-58
3.01109e-57
-1.17502e-56
3.86839e-56
-9.37696e-56
6.33197e-56
9.55818e-55
-7.11608e-54
3.17002e-53
-1.00348e-52
2.05273e-52
-7.60471e-53
-1.26403e-51
4.72385e-51
-3.29266e-51
-3.78419e-50
1.14415e-49
-1.29946e-49
-3.80032e-49
1.54641e-48
-2.88266e-49
2.50748e-48
-1.15755e-47
-1.34945e-48
1.83313e-47
3.08089e-47
1.85554e-47
-1.64874e-47
-3.1995e-47
-3.63765e-47
-6.48318e-47
1.48648e-46
1.38928e-46
5.08228e-47
-3.17063e-47
-4.55671e-47
-1.27798e-46
4.52232e-46
-5.44386e-47
-1.89972e-46
-1.68589e-46
-9.00145e-47
-3.02203e-47
1.10442e-47
1.78947e-47
1.11135e-47
2.54352e-48
-1.31465e-48
-1.55621e-48
-4.31607e-49
-1.29734e-49
3.68088e-50
4.90065e-50
1.85273e-50
-2.90616e-52
-3.83377e-51
-1.88249e-51
-2.20149e-52
2.26843e-52
1.42537e-52
1.45139e-53
-1.13214e-53
-4.16067e-54
8.77979e-55
1.10196e-54
4.949e-55
-2.0182e-55
-1.27793e-55
1.97193e-56
5.49961e-70
-5.35306e-69
4.68813e-68
-6.10542e-67
3.52485e-66
-4.23328e-65
5.29722e-64
-6.45324e-63
7.66875e-62
1.55527e-61
-1.39159e-59
1.58801e-58
-1.69202e-57
4.82535e-57
-4.21021e-56
4.15261e-55
-3.92563e-54