/*--------------------------------*- C++ -*----------------------------------*\
  =========                 |
  \\      /  F ield         | OpenFOAM: The Open Source CFD Toolbox
   \\    /   O peration     | Website:  https://openfoam.org
    \\  /    A nd           | Version:  13
     \\/     M anipulation  |
\*---------------------------------------------------------------------------*/
FoamFile
{
    format      ascii;
    class       volScalarField;
    location    "3.6";
    object      T;
}
// * * * * * * * * * * * * * * * * * * * * * * * * * * * * * * * * * * * * * //

dimensions      [0 0 0 1 0 0 0];

internalField   nonuniform List<scalar> 
10000
(
1.41381e-83
1.33457e-82
-6.892e-82
4.5847e-81
-2.68853e-80
1.48589e-79
-7.73746e-79
3.80885e-78
-1.77339e-77
7.80165e-77
-3.23497e-76
1.25919e-75
-4.57293e-75
1.53535e-74
-4.69867e-74
1.27966e-73
-2.95924e-73
5.14194e-73
-3.30197e-73
-2.01181e-72
1.07926e-71
-3.11587e-71
5.30622e-71
-5.65578e-73
-3.40689e-70
1.21417e-69
-1.97917e-69
-1.17364e-69
1.60514e-68
-4.08112e-68
1.78977e-68
2.00349e-67
-6.25934e-67
3.28446e-67
2.96971e-66
-8.39871e-66
-2.81714e-67
4.93663e-65
-8.56925e-65
-1.42334e-64
6.99578e-64
-1.54579e-64
-3.71271e-63
4.93262e-63
1.56078e-62
-3.98147e-62
-5.63262e-62
2.4477e-61
1.92081e-61
-1.34374e-60
-7.6957e-61
6.9616e-60
4.56396e-60
-3.42332e-59
-3.49073e-59
1.53197e-58
2.65071e-58
-5.49647e-58
-1.75302e-57
8.74579e-58
9.23992e-57
7.4622e-57
-3.22667e-56
-8.22991e-56
1.11247e-56
3.837e-55
6.69048e-55
-3.16437e-55
-3.49864e-54
-6.4941e-54
-9.75784e-55
2.36087e-53
6.48177e-53
8.42563e-53
-5.95837e-54
-3.24454e-52
-9.60704e-52
-1.89642e-51
-2.95801e-51
-3.84704e-51
-4.25345e-51
-4.00041e-51
-3.13897e-51
-1.93379e-51
-7.44937e-52
1.27902e-52
5.54598e-52
5.88576e-52
3.96353e-52
1.56607e-52
-1.43867e-53
-8.35209e-53
-7.68956e-53
-3.98149e-53
-6.64065e-54
9.367e-54
1.08102e-53
5.92721e-54
1.10333e-54
-1.18539e-54
-6.74106e-82
-3.27318e-81
1.60872e-80
-1.10948e-79
6.60812e-79
-3.69466e-78
1.94037e-77
-9.61467e-77
4.50007e-76
-1.98823e-75
8.27396e-75
-3.23055e-74
1.1764e-73
-3.95944e-73
1.21453e-72
-3.31547e-72
7.68785e-72
-1.34164e-71
8.8207e-72
5.16565e-71
-2.79546e-70
8.10161e-70
-1.38627e-69
3.76579e-71
8.8214e-69
-3.15896e-68
5.17425e-68
2.98026e-68
-4.17017e-67
1.06443e-66
-4.75729e-67
-5.20341e-66
1.63215e-65
-8.67383e-66
-7.72118e-65
2.19129e-64
5.9835e-66
-1.28563e-63
2.23863e-63
3.69793e-63
-1.82442e-62
4.09443e-63
9.67577e-62
-1.28844e-61
-4.06605e-61
1.03881e-60
1.46714e-60
-6.38384e-60
-5.00455e-60
3.504e-59
2.00716e-59
-1.8151e-58
-1.19159e-58
8.92363e-58
9.11461e-58
-3.99152e-57
-6.91805e-57
1.43048e-56
4.57196e-56
-2.2626e-56
-2.4074e-55
-1.95311e-55
8.39086e-55
2.14592e-54
-2.78107e-55
-9.98056e-54
-1.74536e-53
8.11123e-54
9.09301e-53
1.69248e-52
2.66001e-53
-6.11992e-52
-1.6848e-51
-2.19657e-51
1.34089e-52
8.38888e-51
2.48943e-50
4.91789e-50
7.67377e-50
9.98207e-50
1.10375e-49
1.03808e-49
8.14439e-50
5.01566e-50
1.92968e-50
-3.35348e-51
-1.44178e-50
-1.52865e-50
-1.02865e-50
-4.05808e-51
3.80753e-52
2.17268e-51
1.99757e-51
1.03296e-51
1.71148e-52
-2.4411e-52
-2.81014e-52
-1.53845e-52
-2.84677e-53
3.08799e-53
2.79525e-80
9.09659e-80
-4.24101e-79
3.04124e-78
-1.84048e-77
1.04097e-76
-5.51269e-76
2.74893e-75
-1.29305e-74
5.73616e-74
-2.39514e-73
9.37867e-73
-3.42382e-72
1.15497e-71
-3.5503e-71
9.71245e-71
-2.25765e-70
3.95539e-70
-2.65482e-70
-1.50078e-69
8.187e-69
-2.38098e-68
4.09161e-68
-1.7168e-69
-2.58271e-67
9.28909e-67
-1.52815e-66
-8.56904e-67
1.22467e-65
-3.137e-65
1.42569e-65
1.52766e-64
-4.8091e-64
2.58474e-64
2.26907e-63
-6.45998e-63
-1.40175e-64
3.78378e-62
-6.60709e-62
-1.08601e-61
5.37623e-61
-1.22332e-61
-2.84954e-60
3.80228e-60
1.19705e-59
-3.06247e-59
-4.31868e-59
1.88134e-58
1.4735e-58
-1.03248e-57
-5.91526e-58
5.34769e-57
3.51499e-57
-2.62858e-56
-2.68888e-56
1.17526e-55
2.04003e-55
-4.20762e-55
-1.34735e-54
6.61926e-55
7.0882e-54
5.77416e-54
-2.4663e-53
-6.32273e-53
7.87702e-54
2.93424e-52
5.14475e-52
-2.35284e-52
-2.67133e-51
-4.98452e-51
-8.14421e-52
1.79363e-50
4.95005e-50
6.47096e-50
-3.38668e-51
-2.45283e-49
-7.29355e-49
-1.44186e-48
-2.25062e-48
-2.92814e-48
-3.238e-48
-3.04531e-48
-2.38896e-48
-1.47075e-48
-5.65191e-49
9.92972e-50
4.23659e-49
4.48802e-49
3.01803e-49
1.18894e-49
-1.13677e-50
-6.38805e-50
-5.86588e-50
-3.02972e-50
-4.98955e-51
7.18897e-51
8.25701e-51
4.5142e-51
8.30785e-52
-9.09085e-52
-1.04677e-78
-2.45605e-78
1.07224e-77
-8.0777e-77
4.98192e-76
-2.85553e-75
1.52648e-74
-7.66567e-74
3.62563e-73
-1.61548e-72
6.77006e-72
-2.65914e-71
9.73362e-71
-3.29136e-70
1.01401e-69
-2.78024e-69
6.47933e-69
-1.13981e-68
7.81265e-69
4.2586e-68
-2.34294e-67
6.83872e-67
-1.18046e-66
6.76001e-68
7.38875e-66
-2.66962e-65
4.41168e-65
2.40438e-65
-3.51484e-64
9.03646e-64
-4.17758e-64
-4.38312e-63
1.385e-62
-7.53074e-63
-6.51697e-62
1.86146e-61
2.95611e-63
-1.08843e-60
1.90611e-60
3.11694e-60
-1.54852e-59
3.57369e-60
8.20235e-59
-1.09681e-58
-3.44448e-58
8.82471e-58
1.24249e-57
-5.41925e-57
-4.24035e-57
2.97361e-56
1.70393e-56
-1.53998e-55
-1.01349e-55
7.56794e-55
7.75363e-55
-3.38218e-54
-5.88012e-54
1.2096e-53
3.88103e-53
-1.89214e-53
-2.03983e-52
-1.66873e-52
7.08477e-52
1.82087e-51
-2.17365e-52
-8.431e-51
-1.48229e-50
6.66508e-51
7.66965e-50
1.43482e-49
2.43719e-50
-5.13691e-49
-1.42135e-48
-1.86326e-48
8.06552e-50
7.00743e-48
2.0881e-47
4.131e-47
6.45045e-47
8.39385e-47
9.28286e-47
8.73035e-47
6.84789e-47
4.21445e-47
1.6176e-47
-2.87431e-48
-1.21666e-47
-1.28771e-47
-8.65328e-48
-3.40386e-48
3.31838e-49
1.83564e-48
1.68339e-48
8.68398e-49
1.42103e-49
-2.06929e-49
-2.3711e-49
-1.29444e-49
-2.36867e-50
2.61578e-50
3.64968e-77
6.42826e-77
-2.57953e-76
2.0726e-75
-1.30788e-74
7.61387e-74
-4.11394e-73
2.08227e-72
-9.9083e-72
4.43619e-71
-1.86643e-70
7.35531e-70
-2.7001e-69
9.15354e-69
-2.82676e-68
7.76885e-68
-1.81543e-67
3.20719e-67
-2.24573e-67
-1.17896e-66
6.545e-66
-1.91772e-65
3.32564e-65
-2.43163e-66
-2.06335e-64
7.49079e-64
-1.24371e-63
-6.57574e-64
9.84847e-63
-2.54171e-62
1.19571e-62
1.22774e-61
-3.89471e-61
2.14308e-61
1.8274e-60
-5.23753e-60
-5.15206e-62
3.05697e-59
-5.36975e-59
-8.73374e-59
4.35509e-58
-1.01975e-58
-2.30533e-57
3.08951e-57
9.67737e-57
-2.48301e-56
-3.49027e-56
1.52425e-55
1.19146e-55
-8.36233e-55
-4.79258e-55
4.33014e-54
2.8535e-54
-2.12751e-53
-2.18324e-53
9.50365e-53
1.65497e-52
-3.39515e-52
-1.09158e-51
5.27941e-52
5.73166e-51
4.70951e-51
-1.98701e-50
-5.12027e-50
5.83509e-51
2.36517e-49
4.17015e-49
-1.84182e-49
-2.14985e-48
-4.03279e-48
-7.12167e-49
1.43615e-47
3.98456e-47
5.23859e-47
-1.7745e-48
-1.95398e-46
-5.83561e-46
-1.15539e-45
-1.80479e-45
-2.349e-45
-2.598e-45
-2.44335e-45
-1.91626e-45
-1.17892e-45
-4.51919e-46
8.12543e-47
3.41122e-46
3.60702e-46
2.42211e-46
9.51277e-47
-9.46177e-48
-5.14998e-47
-4.7164e-47
-2.42987e-47
-3.94943e-48
5.8158e-48
6.6476e-48
3.62363e-48
6.59085e-49
-7.34892e-49
-1.20293e-75
-1.6276e-75
5.836e-75
-5.12023e-74
3.32362e-73
-1.97071e-72
1.07799e-71
-5.50487e-71
2.6371e-70
-1.18695e-69
5.01531e-69
-1.98354e-68
7.30387e-68
-2.48282e-67
7.68671e-67
-2.11785e-66
4.96306e-66
-8.80682e-66
6.30192e-66
3.1823e-65
-1.78367e-64
5.24729e-64
-9.14371e-64
8.18757e-65
5.6211e-63
-2.05096e-62
3.42191e-62
1.75156e-62
-2.69249e-61
6.97668e-61
-3.3411e-61
-3.35543e-60
1.06879e-59
-5.95353e-60
-4.99988e-59
1.43814e-58
5.11145e-61
-8.37824e-58
1.47633e-57
2.38778e-57
-1.19529e-56
2.84069e-57
6.32281e-56
-8.49315e-56
-2.65318e-55
6.81807e-55
9.56747e-55
-4.18377e-54
-3.2669e-54
2.2949e-53
1.31548e-53
-1.18818e-52
-7.84054e-53
5.83649e-52
5.99943e-52
-2.60593e-51
-4.54571e-51
9.29897e-51
2.99613e-50
-1.43697e-50
-1.57161e-49
-1.29723e-49
5.43773e-49
1.40508e-48
-1.52211e-49
-6.47432e-48
-1.14491e-47
4.96174e-48
5.87995e-47
1.10611e-46
2.0309e-47
-3.9172e-46
-1.08992e-45
-1.4373e-45
3.46004e-47
5.3149e-45
1.59106e-44
3.1527e-44
4.92667e-44
6.41357e-44
7.09407e-44
6.6717e-44
5.23177e-44
3.2175e-44
1.23171e-44
-2.24199e-45
-9.33227e-45
-9.85823e-45
-6.61467e-45
-2.59363e-45
2.63371e-46
1.40985e-45
1.28931e-45
6.63349e-46
1.07051e-46
-1.59507e-46
-1.81851e-46
-9.8971e-47
-1.78868e-47
2.01475e-47
3.78007e-74
3.97609e-74
-1.21592e-73
1.21238e-72
-8.15598e-72
4.94383e-71
-2.74318e-70
1.41501e-69
-6.82966e-69
3.09196e-68
-1.3126e-67
5.21143e-67
-1.92532e-66
6.56388e-66
-2.0376e-65
5.62887e-65
-1.32304e-64
2.35859e-64
-1.72538e-64
-8.36925e-64
4.73918e-63
-1.40009e-62
2.45205e-62
-2.61327e-63
-1.49294e-61
5.4761e-61
-9.18309e-61
-4.54024e-61
7.17784e-60
-1.86769e-59
9.1087e-60
8.94201e-59
-2.86047e-58
1.61358e-58
1.334e-57
-3.85136e-57
1.14845e-59
2.23933e-56
-3.95889e-56
-6.36565e-56
3.19947e-55
-7.7207e-56
-1.69124e-54
2.27723e-54
7.09395e-54
-1.82592e-53
-2.55765e-53
1.11999e-52
8.7358e-53
-6.1423e-52
-3.52148e-52
3.1797e-51
2.10118e-51
-1.56155e-50
-1.60794e-50
6.96869e-50
1.21775e-49
-2.48372e-49
-8.02045e-49
3.81296e-49
4.20266e-48
3.48533e-48
-1.45115e-47
-3.76041e-47
3.85316e-48
1.72825e-46
3.06567e-46
-1.30214e-46
-1.5682e-45
-2.95875e-45
-5.64884e-46
1.04172e-44
2.90718e-44
3.84596e-44
-5.33113e-46
-1.40929e-43
-4.22942e-43
-8.38784e-43
-1.3113e-42
-1.70743e-42
-1.88877e-42
-1.7763e-42
-1.39273e-42
-8.56184e-43
-3.27297e-43
6.03439e-44
2.48963e-43
2.62722e-43
1.76138e-43
6.89449e-44
-7.1525e-45
-3.76379e-44
-3.43684e-44
-1.76573e-44
-2.828e-45
4.26648e-45
4.85103e-45
2.63576e-45
4.73147e-46
-5.38682e-46
-1.13825e-72
-9.33976e-73
2.23213e-72
-2.73345e-71
1.92674e-70
-1.19984e-69
6.7702e-69
-3.53277e-68
1.71955e-67
-7.83523e-67
3.3433e-66
-1.333e-65
4.94222e-65
-1.69018e-64
5.26174e-64
-1.45763e-63
3.43691e-63
-6.15666e-63
4.60602e-63
2.14299e-62
-1.22683e-61
3.64055e-61
-6.40943e-61
7.96353e-62
3.8632e-60
-1.42492e-59
2.40217e-59
1.14422e-59
-1.86468e-58
4.8732e-58
-2.42134e-58
-2.32212e-57
7.46161e-57
-4.26399e-57
-3.46849e-56
1.00528e-55
-9.83925e-58
-5.83323e-55
1.03478e-54
1.65371e-54
-8.34712e-54
2.04606e-54
4.409e-53
-5.95151e-53
-1.84859e-52
4.76614e-52
6.66367e-52
-2.92222e-51
-2.27667e-51
1.60232e-50
9.18798e-51
-8.29357e-50
-5.48846e-50
4.07197e-49
4.20054e-49
-1.81624e-48
-3.17965e-48
6.46524e-48
2.09262e-47
-9.85691e-48
-1.09532e-46
-9.12824e-47
3.77399e-46
9.80893e-46
-9.45166e-47
-4.49594e-45
-8.00095e-45
3.32654e-45
4.0758e-44
7.71368e-44
1.53154e-44
-2.69926e-43
-7.55674e-43
-1.00302e-42
3.22172e-45
3.64039e-42
1.09542e-41
2.17442e-41
3.40085e-41
4.42923e-41
4.90012e-41
4.60827e-41
3.61264e-41
2.21996e-41
8.47364e-42
-1.58334e-42
-6.47245e-42
-6.82275e-42
-4.57031e-42
-1.78567e-42
1.89396e-43
9.79217e-43
8.9275e-43
4.57975e-43
7.27615e-44
-1.11224e-43
-1.26107e-43
-6.83995e-44
-1.21908e-44
1.4037e-44
3.29482e-71
2.09971e-71
-3.18368e-71
5.80896e-70
-4.36369e-69
2.81074e-68
-1.61804e-67
8.55643e-67
-4.20469e-66
1.92972e-65
-8.28075e-65
3.31676e-64
-1.23447e-63
4.23588e-63
-1.3227e-62
3.67513e-62
-8.69428e-62
1.56533e-61
-1.19814e-61
-5.33833e-61
3.09208e-60
-9.21871e-60
1.63193e-59
-2.32709e-60
-9.7326e-59
3.61089e-58
-6.12103e-58
-2.80082e-58
4.71721e-57
-1.23847e-56
6.27196e-57
5.87217e-56
-1.89576e-55
1.09791e-55
8.78246e-55
-2.55582e-54
4.31424e-56
1.47989e-53
-2.6346e-53
-4.1836e-53
2.12107e-52
-5.28358e-53
-1.11949e-51
1.5151e-51
4.69168e-51
-1.21177e-50
-1.6909e-50
7.42635e-50
5.77878e-50
-4.07123e-49
-2.33493e-49
2.10694e-48
1.39643e-48
-1.0342e-47
-1.06886e-47
4.61041e-47
8.0868e-47
-1.63902e-46
-5.31796e-46
2.48069e-46
2.78033e-45
2.32892e-45
-9.55845e-45
-2.4921e-44
2.24257e-45
1.13904e-43
2.03388e-43
-8.26588e-44
-1.03159e-42
-1.95867e-42
-4.04499e-43
6.81004e-42
1.91286e-41
2.54783e-41
2.01403e-43
-9.15427e-41
-2.76234e-40
-5.48857e-40
-8.58828e-40
-1.1188e-39
-1.23787e-39
-1.16413e-39
-9.12474e-40
-5.6047e-40
-2.13594e-40
4.04733e-41
1.63867e-40
1.72539e-40
1.15473e-40
4.50298e-41
-4.88675e-42
-2.48106e-41
-2.25825e-41
-1.15664e-41
-1.82195e-42
2.82407e-42
3.1925e-42
1.72842e-42
3.05719e-43
-3.5625e-43
-9.18631e-70
-4.48758e-70
1.45822e-70
-1.14353e-68
9.41991e-68
-6.33756e-67
3.73793e-66
-2.00774e-65
9.97418e-65
-4.61464e-64
1.99262e-63
-8.02137e-63
2.99797e-62
-1.03242e-61
3.23437e-61
-9.01513e-61
2.1402e-60
-3.87373e-60
3.03479e-60
1.29265e-59
-7.582e-59
2.2717e-58
-4.04455e-58
6.53867e-59
2.38541e-57
-8.90501e-57
1.51825e-56
6.65165e-57
-1.16125e-55
3.06344e-55
-1.58197e-55
-1.44497e-54
4.68796e-54
-2.75256e-54
-2.16405e-53
6.32461e-53
-1.53551e-54
-3.65399e-52
6.52934e-52
1.0299e-51
-5.24595e-51
1.32857e-51
2.76653e-50
-3.75439e-50
-1.15889e-49
2.99873e-49
4.17584e-49
-1.83692e-48
-1.42757e-48
1.00682e-47
5.77531e-48
-5.20969e-47
-3.45825e-47
2.55652e-46
2.64737e-46
-1.13904e-45
-2.0019e-45
4.04379e-45
1.31538e-44
-6.07343e-45
-6.86884e-44
-5.78419e-44
2.35592e-43
6.16252e-43
-5.1357e-44
-2.80833e-42
-5.03231e-42
1.99607e-42
2.54081e-41
4.84062e-41
1.03999e-41
-1.67165e-40
-4.712e-40
-6.29906e-40
-1.22963e-41
2.23924e-39
6.77726e-39
1.34797e-38
2.11028e-38
2.74977e-38
3.04277e-38
2.86146e-38
2.24252e-38
1.37679e-38
5.23811e-39
-1.00719e-39
-4.03731e-39
-4.24585e-39
-2.83888e-39
-1.10478e-39
1.22774e-40
6.11772e-40
5.55865e-40
2.84229e-40
4.43648e-41
-6.97893e-41
-7.86499e-41
-4.24987e-41
-7.45646e-42
8.79961e-42
2.47002e-68
9.02342e-69
1.25952e-68
2.0148e-67
-1.92134e-66
1.37029e-65
-8.32887e-65
4.55714e-64
-2.29249e-63
1.07034e-62
-4.65394e-62
1.88382e-61
-7.07282e-61
2.44518e-60
-7.68708e-60
2.14984e-59
-5.1227e-59
9.32361e-59
-7.47949e-59
-3.0399e-58
1.80734e-57
-5.44352e-57
9.74987e-57
-1.76957e-57
-5.6834e-56
2.13559e-55
-3.66301e-55
-1.53078e-55
2.77962e-54
-7.36985e-54
3.88262e-54
3.45726e-53
-1.12747e-52
6.7145e-53
5.1852e-52
-1.5222e-51
4.87151e-53
8.77398e-51
-1.57393e-50
-2.46526e-50
1.26188e-49
-3.25065e-50
-6.64903e-49
9.04897e-49
2.78391e-48
-7.21755e-48
-1.00291e-47
4.41911e-47
3.42972e-47
-2.4216e-46
-1.38931e-46
1.25283e-45
8.32995e-46
-6.14623e-45
-6.37762e-45
2.73678e-44
4.82001e-44
-9.70221e-44
-3.16437e-43
1.44537e-43
1.65035e-42
1.39742e-42
-5.64659e-42
-1.48209e-41
1.13217e-42
6.73315e-41
1.211e-40
-4.68008e-41
-6.08518e-40
-1.16346e-39
-2.60108e-40
3.98928e-39
1.12867e-38
1.51461e-38
4.79692e-40
-5.3239e-38
-1.61648e-37
-3.21858e-37
-5.04141e-37
-6.57093e-37
-7.27192e-37
-6.83851e-37
-5.35839e-37
-3.28817e-37
-1.24878e-37
2.43829e-38
9.67244e-38
1.01591e-37
6.78585e-38
2.63508e-38
-3.00135e-39
-1.46691e-38
-1.33042e-38
-6.79082e-39
-1.04966e-39
1.6773e-39
1.88411e-39
1.01601e-39
1.76727e-40
-2.11384e-40
-6.40929e-67
-1.67685e-67
-6.87549e-67
-2.91316e-66
3.65007e-65
-2.82676e-64
1.78519e-63
-9.98769e-63
5.09828e-62
-2.4051e-61
1.05391e-60
-4.2921e-60
1.61949e-59
-5.62247e-59
1.77422e-58
-4.97979e-58
1.19127e-57
-2.18086e-57
1.79227e-57
6.93632e-57
-4.18463e-56
1.26737e-55
-2.28426e-55
4.61735e-56
1.31522e-54
-4.97641e-54
8.58946e-54
3.40916e-54
-6.46422e-53
1.72302e-52
-9.26499e-53
-8.03645e-52
2.63511e-51
-1.59243e-51
-1.20713e-50
3.56041e-50
-1.4269e-51
-2.04723e-49
3.68743e-49
5.73321e-49
-2.94979e-48
7.73305e-49
1.5529e-47
-2.11972e-47
-6.4986e-47
1.68824e-46
2.3406e-46
-1.03314e-45
-8.00701e-46
5.6602e-45
3.24788e-45
-2.92783e-44
-1.94998e-44
1.43594e-43
1.49317e-43
-6.38999e-43
-1.12785e-42
2.26193e-42
7.39781e-42
-3.34076e-42
-3.85322e-41
-3.28149e-41
1.31497e-40
3.46391e-40
-2.39439e-41
-1.56855e-39
-2.83211e-39
1.06437e-39
1.41599e-38
2.71748e-38
6.32354e-39
-9.24776e-38
-2.62674e-37
-3.53915e-37
-1.57115e-38
1.22925e-36
3.7451e-36
7.46547e-36
1.17e-35
1.52541e-35
1.68834e-35
1.58769e-35
1.24383e-35
7.62877e-36
2.89177e-36
-5.73785e-37
-2.2515e-36
-2.36163e-36
-1.57579e-36
-6.10504e-37
7.13363e-38
3.41768e-37
3.0937e-37
1.57616e-37
2.41091e-38
-3.9174e-38
-4.38538e-38
-2.35972e-38
-4.06685e-39
4.93439e-39
1.60548e-65
2.7797e-66
2.49336e-65
2.34885e-65
-6.28842e-64
5.52273e-63
-3.66804e-62
2.10912e-61
-1.09532e-60
5.22896e-60
-2.31145e-59
9.47729e-59
-3.5955e-58
1.254e-57
-3.97313e-57
1.11945e-56
-2.68917e-56
4.95331e-56
-4.17218e-56
-1.53407e-55
9.40263e-55
-2.86451e-54
5.19693e-54
-1.16224e-54
-2.95359e-53
1.12579e-52
-1.95598e-52
-7.33599e-53
1.45929e-51
-3.91142e-51
2.14785e-51
1.81334e-50
-5.98002e-50
3.66876e-50
2.72813e-49
-8.08634e-49
3.92389e-50
4.63778e-48
-8.38914e-48
-1.29427e-47
6.69541e-47
-1.7872e-47
-3.52146e-46
4.82185e-46
1.47287e-45
-3.83448e-45
-5.30356e-45
2.34533e-44
1.81495e-44
-1.28461e-43
-7.37242e-44
6.64368e-43
4.43257e-43
-3.25739e-42
-3.39469e-42
1.44861e-41
2.56266e-41
-5.11974e-41
-1.67933e-40
7.49271e-41
8.73499e-40
7.48357e-40
-2.97288e-39
-7.86085e-39
4.83572e-40
3.54748e-38
6.4313e-38
-2.34542e-38
-3.19859e-37
-6.16282e-37
-1.49312e-37
2.0806e-36
5.93448e-36
8.02981e-36
4.63564e-37
-2.75387e-35
-8.42073e-35
-1.68065e-34
-2.63549e-34
-3.43711e-34
-3.80475e-34
-3.57787e-34
-2.80241e-34
-1.71786e-34
-6.49859e-35
1.31143e-35
5.08778e-35
5.32908e-35
3.5518e-35
1.3727e-35
-1.64715e-36
-7.73036e-36
-6.98331e-36
-3.55076e-36
-5.37055e-37
8.88343e-37
9.9089e-37
5.31969e-37
9.07796e-38
-1.11836e-37
-3.88234e-64
-3.75533e-65
-7.63945e-64
4.65223e-64
9.24604e-63
-1.01018e-61
7.19189e-61
-4.28028e-60
2.26922e-59
-1.09835e-58
4.90364e-58
-2.02579e-57
7.73172e-57
-2.71008e-56
8.62418e-56
-2.43995e-55
5.88734e-55
-1.09143e-54
9.42701e-55
3.28494e-54
-2.04836e-53
6.27946e-53
-1.14714e-52
2.82262e-53
6.43055e-52
-2.47028e-51
4.32163e-51
1.52257e-51
-3.19493e-50
8.61403e-50
-4.8331e-50
-3.96803e-49
1.31651e-48
-8.20378e-49
-5.97997e-48
1.78172e-47
-1.02225e-48
-1.01914e-46
1.85175e-46
2.83367e-46
-1.47431e-45
4.00922e-46
7.74649e-45
-1.06419e-44
-3.23819e-44
8.44924e-44
1.16572e-43
-5.16505e-43
-3.99069e-43
2.82837e-42
1.62345e-42
-1.46249e-41
-9.77532e-42
7.16829e-41
7.48768e-41
-3.18568e-40
-5.64902e-40
1.12404e-39
3.69825e-39
-1.6291e-39
-1.92088e-38
-1.656e-38
6.51893e-38
1.73059e-37
-9.2661e-39
-7.7819e-37
-1.41685e-36
5.00194e-37
7.00766e-36
1.35582e-35
3.42128e-36
-4.53886e-35
-1.30037e-34
-1.76738e-34
-1.26771e-35
5.98018e-34
1.83579e-33
3.66874e-33
5.75671e-33
7.51014e-33
8.31459e-33
7.81867e-33
6.12279e-33
3.75103e-33
1.41594e-33
-2.90864e-34
-1.11509e-33
-1.16622e-33
-7.76346e-34
-2.99261e-34
3.69157e-35
1.69596e-34
1.52876e-34
7.75684e-35
1.1591e-35
-1.9542e-35
-2.17152e-35
-1.16298e-35
-1.96364e-36
2.45879e-36
9.06112e-63
2.72517e-64
2.11078e-62
-3.18922e-62
-9.44553e-62
1.69545e-60
-1.33694e-59
8.32079e-59
-4.52375e-58
2.22534e-57
-1.00487e-56
4.18664e-56
-1.60856e-55
5.66915e-55
-1.81264e-54
5.15109e-54
-1.24879e-53
2.33088e-53
-2.06554e-53
-6.80227e-53
4.32207e-52
-1.33382e-51
2.45438e-51
-6.61343e-52
-1.35598e-50
5.25247e-50
-9.25563e-50
-3.04159e-50
6.77724e-49
-1.83861e-48
1.05465e-48
8.41257e-48
-2.80901e-47
1.77886e-47
1.27009e-46
-3.80498e-46
2.53623e-47
2.17031e-45
-3.96194e-45
-6.0109e-45
3.14636e-44
-8.72192e-45
-1.65149e-43
2.27659e-43
6.89945e-43
-1.80449e-42
-2.48304e-42
1.10245e-41
8.50363e-42
-6.03546e-41
-3.46476e-41
3.12018e-40
2.0895e-40
-1.52884e-39
-1.6008e-39
6.78951e-39
1.20695e-38
-2.39145e-38
-7.89353e-38
3.43028e-38
4.09375e-37
3.55235e-37
-1.38513e-36
-3.69257e-36
1.66815e-37
1.65416e-35
3.02533e-35
-1.03108e-35
-1.48758e-34
-2.89079e-34
-7.60048e-35
9.59125e-34
2.76088e-33
3.77014e-33
3.25885e-34
-1.25749e-32
-3.87653e-32
-7.75795e-32
-1.21814e-31
-1.58972e-31
-1.76026e-31
-1.65524e-31
-1.29593e-31
-7.93434e-32
-2.98814e-32
6.25434e-33
2.36804e-32
2.47268e-32
1.64396e-32
6.31937e-33
-8.02303e-34
-3.60544e-33
-3.24257e-33
-1.64157e-33
-2.42109e-34
4.1663e-34
4.61109e-34
2.46316e-34
4.11161e-35
-5.23891e-35
-2.04029e-61
5.83228e-63
-5.40237e-61
1.13492e-60
-2.77533e-61
-2.50542e-59
2.33352e-58
-1.54288e-57
8.65565e-57
-4.34088e-56
1.98607e-55
-8.35442e-55
3.23373e-54
-1.14656e-53
3.68496e-53
-1.05219e-52
2.56377e-52
-4.81974e-52
4.38442e-52
1.36036e-51
-8.82338e-51
2.74238e-50
-5.08494e-50
1.49445e-50
2.76628e-49
-1.08108e-48
1.91957e-48
5.83376e-49
-1.39143e-47
3.79964e-47
-2.22956e-47
-1.72617e-46
5.80289e-46
-3.73657e-46
-2.61108e-45
7.86769e-45
-6.01105e-46
-4.47432e-44
8.20834e-44
1.23409e-43
-6.50126e-43
1.83824e-43
3.40872e-42
-4.71598e-42
-1.42317e-41
3.73147e-41
5.12033e-41
-2.27835e-40
-1.75424e-40
1.24696e-39
7.15929e-40
-6.44515e-39
-4.32466e-39
3.15692e-38
3.31385e-38
-1.40093e-37
-2.49689e-37
4.92541e-37
1.63125e-36
-6.98729e-37
-8.44663e-36
-7.37973e-36
2.84887e-35
7.62832e-35
-2.77559e-36
-3.40365e-34
-6.25467e-34
2.05148e-34
3.05652e-33
5.96735e-33
1.63542e-33
-1.96115e-32
-5.67379e-32
-7.78661e-32
-7.93595e-33
2.5576e-31
7.92042e-31
1.58747e-30
2.4944e-30
3.2565e-30
3.60643e-30
3.3912e-30
2.65442e-30
1.62408e-30
6.10129e-31
-1.30252e-31
-4.86767e-31
-5.07415e-31
-3.36896e-31
-1.29116e-31
1.68924e-32
7.4196e-32
6.65665e-32
3.36192e-32
4.88851e-33
-8.59964e-33
-9.47743e-33
-5.04881e-33
-8.32412e-34
1.08068e-33
4.42965e-60
-3.57112e-61
1.29798e-59
-3.26663e-59
5.23232e-59
2.91283e-58
-3.76305e-57
2.713e-56
-1.58456e-55
8.13468e-55
-3.77944e-54
1.60733e-53
-6.27333e-53
2.23912e-52
-7.23705e-52
2.07713e-51
-5.08858e-51
9.63908e-51
-9.00638e-51
-2.62365e-50
1.74074e-49
-5.45166e-49
1.01901e-48
-3.25532e-49
-5.45341e-48
2.15157e-47
-3.85099e-47
-1.07102e-47
2.76185e-46
-7.59441e-46
4.56148e-46
3.42413e-45
-1.15938e-44
7.59542e-45
5.19006e-44
-1.57345e-43
1.3634e-44
8.92018e-43
-1.64497e-42
-2.4495e-42
1.29922e-41
-3.74952e-42
-6.8042e-41
9.44963e-41
2.83891e-40
-7.46314e-40
-1.02107e-39
4.55389e-39
3.49967e-39
-2.49167e-38
-1.43072e-38
1.28759e-37
8.65741e-38
-6.3045e-37
-6.63532e-37
2.79552e-36
4.99611e-36
-9.80952e-36
-3.26039e-35
1.37524e-35
1.68543e-34
1.4831e-34
-5.66553e-34
-1.52414e-33
4.13619e-35
6.77191e-33
1.25069e-32
-3.93363e-33
-6.07203e-32
-1.19131e-31
-3.40488e-32
3.87575e-31
1.12736e-30
1.55536e-30
1.8389e-31
-5.02553e-30
-1.564e-29
-3.13975e-29
-4.93732e-29
-6.44837e-29
-7.14249e-29
-6.71608e-29
-5.25559e-29
-3.21328e-29
-1.20393e-29
2.62447e-30
9.67437e-30
1.00665e-29
6.6739e-30
2.5496e-30
-3.44199e-31
-1.47639e-30
-1.32116e-30
-6.65542e-31
-9.52926e-32
1.71666e-31
1.88341e-31
1.0004e-31
1.62743e-32
-2.15581e-32
-9.26607e-59
1.17768e-59
-2.94885e-58
8.33271e-58
-1.95944e-57
-1.37303e-57
5.43712e-56
-4.48572e-55
2.76422e-54
-1.46073e-53
6.91135e-53
-2.97658e-52
1.17269e-51
-4.21666e-51
1.37132e-50
-3.95797e-50
9.75268e-50
-1.8623e-49
1.78837e-49
4.87212e-49
-3.31472e-48
1.04661e-47
-1.97298e-47
6.83082e-48
1.03759e-46
-4.13559e-46
7.46469e-46
1.87482e-46
-5.29357e-45
1.46635e-44
-9.02146e-45
-6.55856e-44
2.23764e-43
-1.49241e-43
-9.96264e-43
3.03997e-42
-2.96223e-43
-1.71772e-41
3.18505e-41
4.6948e-41
-2.5082e-40
7.39343e-41
1.31198e-39
-1.82941e-39
-5.47007e-39
1.44203e-38
1.96676e-38
-8.79311e-38
-6.74382e-38
4.80972e-37
2.76197e-37
-2.4849e-36
-1.67435e-36
1.21623e-35
1.28358e-35
-5.38851e-35
-9.65796e-35
1.88698e-34
6.2953e-34
-2.6121e-34
-3.24862e-33
-2.8801e-33
1.08813e-32
2.94178e-32
-5.11767e-34
-1.30125e-31
-2.41603e-31
7.2563e-32
1.16488e-30
2.29743e-30
6.8513e-31
-7.39395e-30
-2.1632e-29
-3.00122e-29
-4.06502e-30
9.52776e-29
2.98105e-28
5.99496e-28
9.43502e-28
1.23278e-27
1.36573e-27
1.28417e-27
1.00464e-27
6.13763e-28
2.293e-28
-5.11041e-29
-1.85685e-28
-1.92838e-28
-1.27649e-28
-4.8597e-29
6.77964e-30
2.83733e-29
2.53201e-29
1.27202e-29
1.79083e-30
-3.31024e-30
-3.61448e-30
-1.91388e-30
-3.06842e-31
4.1541e-31
1.86588e-57
-3.15093e-58
6.36095e-57
-1.9493e-56
5.5109e-56
-5.77651e-56
-6.54337e-55
6.88064e-54
-4.57038e-53
2.50558e-52
-1.21178e-51
5.29617e-51
-2.1089e-50
7.64588e-50
-2.50354e-49
7.27006e-49
-1.8026e-48
3.47157e-48
-3.4285e-48
-8.69607e-48
6.08403e-47
-1.93792e-46
3.68614e-46
-1.37961e-46
-1.90276e-45
7.66745e-45
-1.39632e-44
-3.1132e-45
9.78467e-44
-2.7317e-43
1.72268e-43
1.21142e-42
-4.16674e-42
2.83108e-42
1.84446e-41
-5.66694e-41
6.16709e-42
3.19089e-40
-5.95101e-40
-8.6776e-40
4.67183e-39
-1.40763e-39
-2.44058e-38
3.41764e-38
1.01679e-37
-2.68845e-37
-3.65453e-37
1.63817e-36
1.25365e-36
-8.95774e-36
-5.14423e-36
4.62684e-35
3.12454e-35
-2.26369e-34
-2.39594e-34
1.00205e-33
1.80143e-33
-3.50146e-33
-1.17279e-32
4.78135e-33
6.04089e-32
5.39783e-32
-2.01577e-31
-5.47827e-31
3.90056e-33
2.4118e-30
4.50322e-30
-1.28523e-30
-2.15532e-29
-4.2745e-29
-1.33082e-29
1.35987e-28
4.00333e-28
5.58737e-28
8.58465e-29
-1.74043e-27
-5.47732e-27
-1.10358e-26
-1.7384e-26
-2.27246e-26
-2.51802e-26
-2.36759e-26
-1.85167e-26
-1.1303e-26
-4.20961e-27
9.60501e-28
3.43736e-27
3.56242e-27
2.35419e-27
8.92921e-28
-1.28931e-28
-5.25957e-28
-4.67979e-28
-2.3441e-28
-3.23968e-29
6.15826e-29
6.69025e-29
3.53064e-29
5.5711e-30
-7.72237e-30
-3.61317e-56
7.46603e-57
-1.30579e-55
4.24965e-55
-1.34108e-54
2.6133e-54
4.96225e-54
-9.5582e-53
7.10784e-52
-4.08934e-51
2.03175e-50
-9.03517e-50
3.64204e-49
-1.33276e-48
4.39699e-48
-1.28538e-47
3.20862e-47
-6.23559e-47
6.33755e-47
1.48888e-46
-1.07482e-45
3.4561e-45
-6.63667e-45
2.67928e-45
3.35818e-44
-1.3693e-43
2.51718e-43
4.86871e-44
-1.74175e-42
4.90332e-42
-3.17195e-42
-2.15475e-41
7.47577e-41
-5.17821e-41
-3.28895e-40
1.01791e-39
-1.23016e-40
-5.71035e-39
1.07152e-38
1.54461e-38
-8.38448e-38
2.58431e-38
4.37409e-37
-6.1529e-37
-1.82086e-36
4.82967e-36
6.54192e-36
-2.94067e-35
-2.24518e-35
1.60746e-34
9.23143e-35
-8.30076e-34
-5.61853e-34
4.05945e-33
4.30961e-33
-1.79532e-32
-3.23778e-32
6.25898e-32
2.10519e-31
-8.42213e-32
-1.08225e-30
-9.75051e-31
3.59686e-30
9.82967e-30
3.67367e-32
-4.30586e-29
-8.08778e-29
2.18079e-29
3.84083e-28
7.66249e-28
2.4922e-28
-2.40766e-27
-7.13566e-27
-1.00225e-26
-1.73302e-27
3.05857e-26
9.68734e-26
1.95583e-25
3.08389e-25
4.0333e-25
4.4701e-25
4.20293e-25
3.28603e-25
2.00405e-25
7.43852e-26
-1.74019e-26
-6.12875e-26
-6.33763e-26
-4.18062e-26
-1.57927e-26
2.36427e-27
9.39138e-27
8.32982e-27
4.15916e-27
5.63217e-28
-1.10381e-27
-1.1927e-27
-6.27158e-28
-9.72485e-29
1.38306e-28
6.7204e-55
-1.61926e-55
2.55382e-54
-8.70677e-54
2.9572e-53
-7.38599e-53
3.79321e-53
1.14166e-51
-1.02771e-50
6.31803e-50
-3.24734e-49
1.47439e-48
-6.02819e-48
2.22929e-47
-7.41685e-47
2.1841e-46
-5.49191e-46
1.07763e-45
-1.12796e-45
-2.43976e-45
1.82469e-44
-5.92766e-44
1.14982e-43
-4.99762e-44
-5.69498e-43
2.35201e-42
-4.36688e-42
-7.09369e-43
2.98135e-41
-8.46796e-41
5.62377e-41
3.6852e-40
-1.29043e-39
9.11925e-40
5.64009e-39
-1.75924e-38
2.34996e-39
9.83026e-38
-1.85663e-37
-2.64374e-37
1.44776e-36
-4.5688e-37
-7.54182e-36
1.06597e-35
3.13684e-35
-8.34821e-35
-1.12651e-34
5.07894e-34
3.868e-34
-2.77532e-33
-1.59378e-33
1.43277e-32
9.72133e-33
-7.00381e-32
-7.45899e-32
3.09447e-31
5.59945e-31
-1.07619e-30
-3.63583e-30
1.4253e-30
1.86529e-29
1.69517e-29
-6.17279e-29
-1.69694e-28
-2.58393e-30
7.39382e-28
1.39763e-27
-3.53573e-28
-6.58222e-27
-1.32148e-26
-4.49319e-27
4.09727e-26
1.22317e-25
1.72969e-25
3.34447e-26
-5.1625e-25
-1.64664e-24
-3.33193e-24
-5.2592e-24
-6.88203e-24
-7.6291e-24
-7.17291e-24
-5.60616e-24
-3.41569e-24
-1.26314e-24
3.03484e-25
1.05091e-24
1.08414e-24
7.13758e-25
2.68445e-25
-4.17459e-26
-1.61288e-25
-1.42573e-25
-7.09438e-26
-9.39227e-27
1.90342e-26
2.04486e-26
1.07108e-26
1.6292e-27
-2.38296e-27
-1.19901e-53
3.26461e-54
-4.7601e-53
1.68411e-52
-6.02973e-52
1.72896e-51
-2.79707e-51
-1.00123e-50
1.35446e-49
-9.17571e-49
4.92837e-48
-2.29505e-47
9.54133e-47
-3.57121e-46
1.19939e-45
-3.56052e-45
9.02408e-45
-1.78905e-44
1.93001e-44
3.81641e-44
-2.9717e-43
9.76164e-43
-1.91393e-42
8.94192e-43
9.26389e-42
-3.87942e-41
7.27915e-41
9.45658e-42
-4.89908e-40
1.40479e-39
-9.58617e-40
-6.05018e-39
2.13968e-38
-1.54393e-38
-9.28646e-38
2.92082e-37
-4.29578e-38
-1.62526e-36
3.09087e-36
4.34393e-36
-2.40138e-35
7.76617e-36
1.24902e-34
-1.77439e-34
-5.19019e-34
1.38627e-33
1.86304e-33
-8.42669e-33
-6.40011e-33
4.60293e-32
2.64307e-32
-2.37562e-31
-1.61588e-31
1.16073e-30
1.24028e-30
-5.12313e-30
-9.3031e-30
1.77712e-29
6.03213e-29
-2.31336e-29
-3.08792e-28
-2.83204e-28
1.01722e-27
2.81409e-27
7.71254e-29
-1.21919e-26
-2.3202e-26
5.46047e-27
1.08305e-25
2.18915e-25
7.78715e-26
-6.69051e-25
-2.01315e-24
-2.86751e-24
-6.16756e-25
8.354e-24
2.68537e-23
5.44708e-23
8.6077e-23
1.12704e-22
1.2497e-22
1.17493e-22
9.17952e-23
5.58689e-23
2.05772e-23
-5.08685e-24
-1.73023e-23
-1.78033e-23
-1.16964e-23
-4.37794e-24
7.08676e-25
2.65993e-24
2.34271e-24
1.16139e-24
1.49932e-25
-3.15275e-25
-3.36618e-25
-1.75578e-25
-2.61436e-26
3.9435e-26
2.04891e-52
-6.16734e-53
8.45344e-52
-3.08262e-51
1.14845e-50
-3.59858e-50
8.10056e-50
8.90731e-51
-1.56428e-48
1.23971e-47
-7.06701e-47
3.39673e-46
-1.44046e-45
5.46697e-45
-1.8557e-44
5.5583e-44
-1.42095e-43
2.84828e-43
-3.16947e-43
-5.68148e-43
4.63406e-42
-1.54076e-41
3.05563e-41
-1.53245e-41
-1.44271e-40
6.13365e-40
-1.16387e-39
-1.11386e-40
7.71458e-39
-2.23482e-38
1.56841e-38
9.5178e-38
-3.40209e-37
2.50877e-37
1.46548e-36
-4.65058e-36
7.50678e-37
2.57621e-35
-4.93551e-35
-6.8396e-35
3.81965e-34
-1.2672e-34
-1.98341e-33
2.83303e-33
8.23373e-33
-2.20768e-32
-2.95402e-32
1.34076e-31
1.01531e-31
-7.32077e-31
-4.20298e-31
3.77722e-30
2.57591e-30
-1.84464e-29
-1.97796e-29
8.13283e-29
1.48236e-28
-2.81335e-28
-9.59729e-28
3.59417e-28
4.90163e-27
4.53896e-27
-1.60682e-26
-4.4752e-26
-1.80538e-27
1.92711e-25
3.69395e-25
-8.00257e-26
-1.70798e-24
-3.47746e-24
-1.29521e-24
1.04637e-23
3.17563e-23
4.55864e-23
1.086e-23
-1.29346e-22
-4.19381e-22
-8.52975e-22
-1.34961e-21
-1.76823e-21
-1.9612e-21
-1.84381e-21
-1.43994e-21
-8.75363e-22
-3.20975e-22
8.18105e-23
2.73035e-22
2.80157e-22
1.83634e-22
6.83731e-23
-1.15473e-23
-4.20505e-23
-3.68899e-23
-1.82141e-23
-2.2858e-24
5.00743e-24
5.31106e-24
2.75762e-24
4.00971e-25
-6.25735e-25
-3.34783e-51
1.09629e-51
-1.42927e-50
5.34487e-50
-2.05408e-49
6.84851e-49
-1.82294e-48
2.29292e-48
1.4281e-47
-1.53221e-46
9.51107e-46
-4.76096e-45
2.06818e-44
-7.97786e-44
2.74095e-43
-8.29203e-43
2.13993e-42
-4.34047e-42
4.98637e-42
8.02013e-42
-6.90483e-41
2.32636e-40
-4.67028e-40
2.51142e-40
2.1465e-39
-9.27812e-39
1.7817e-38
1.06312e-39
-1.16186e-37
3.40294e-37
-2.45856e-37
-1.43189e-36
5.17738e-36
-3.90548e-36
-2.21221e-35
7.0879e-35
-1.25237e-35
-3.90763e-34
7.54523e-34
1.02993e-33
-5.81525e-33
1.98124e-33
3.01431e-32
-4.33061e-32
-1.24999e-31
3.36549e-31
4.48208e-31
-2.04195e-30
-1.5413e-30
1.11446e-29
6.39662e-30
-5.7484e-29
-3.93072e-29
2.80581e-28
3.01966e-28
-1.23563e-27
-2.26105e-27
4.26177e-27
1.46158e-26
-5.33402e-27
-7.44643e-26
-6.96599e-26
2.42826e-25
6.81197e-25
3.68567e-26
-2.91435e-24
-5.62957e-24
1.1077e-24