/*--------------------------------*- C++ -*----------------------------------*\
  =========                 |
  \\      /  F ield         | OpenFOAM: The Open Source CFD Toolbox
   \\    /   O peration     | Website:  https://openfoam.org
    \\  /    A nd           | Version:  13
     \\/     M anipulation  |
\*---------------------------------------------------------------------------*/
FoamFile
{
    format      ascii;
    class       volScalarField;
    location    "2.9";
    object      T;
}
// * * * * * * * * * * * * * * * * * * * * * * * * * * * * * * * * * * * * * //

dimensions      [0 0 0 1 0 0 0];

internalField   nonuniform List<scalar> 
10000
(
0
0
0
0
0
0
0
0
0
0
0
0
0
0
0
0
0
0
0
0
0
0
0
0
0
0
0
0
0
0
0
0
0
0
0
0
0
0
0
0
0
0
0
0
0
0
0
0
0
0
0
0
0
0
0
0
0
0
0
0
0
0
0
0
0
0
0
0
0
0
0
0
0
0
0
0
0
0
0
0
0
0
0
0
0
0
0
0
0
0
0
0
0
0
0
0
0
0
0
0
0
0
0
0
0
0
0
0
0
0
0
0
0
0
0
0
0
0
0
0
0
0
0
0
0
0
0
0
0
0
0
0
0
0
0
0
0
0
0
0
0
0
0
0
0
0
0
0
0
0
0
0
0
0
0
0
0
0
0
0
0
0
0
0
0
0
0
0
0
0
0
0
0
0
0
0
0
0
0
0
0
0
0
0
0
0
0
0
0
0
0
0
0
0
0
0
0
0
0
0
0
0
0
0
0
0
0
0
0
0
0
0
0
0
0
0
0
0
0
0
0
0
0
0
0
0
0
0
0
0
0
0
0
0
0
0
0
0
0
0
0
0
0
0
0
0
0
0
0
0
0
0
0
0
0
0
0
0
0
0
0
0
0
0
0
0
0
0
0
0
0
0
0
0
0
0
0
0
0
0
0
0
0
0
0
0
0
0
0
0
0
0
0
0
0
0
0
0
0
0
0
0
0
0
0
0
0
0
0
0
0
0
0
0
0
0
0
0
0
0
0
0
0
0
0
0
0
0
0
0
0
0
0
0
0
0
0
0
0
0
0
0
0
0
0
0
0
0
0
0
0
0
0
0
0
0
0
0
0
0
0
0
0
0
0
0
0
0
0
0
0
0
0
0
0
0
0
0
0
0
0
0
0
0
0
0
0
0
0
0
0
0
0
0
0
0
0
0
0
0
0
0
0
0
0
0
0
0
0
0
0
0
0
0
0
0
0
0
0
0
0
0
0
0
0
0
0
0
0
0
0
0
0
0
0
0
0
0
0
0
0
0
0
0
0
0
0
0
0
0
0
0
0
0
0
0
0
0
0
0
0
0
0
0
0
0
0
0
0
0
0
0
0
0
0
0
0
0
0
0
0
0
0
0
0
0
0
0
0
0
0
0
0
0
0
0
0
0
0
0
0
0
0
0
0
0
0
0
0
0
0
0
0
0
0
0
0
0
0
0
0
0
0
0
0
0
0
0
0
0
0
0
0
0
0
0
0
0
0
0
0
0
0
0
0
0
0
0
0
0
0
0
0
0
0
0
0
0
0
0
0
0
0
0
0
0
0
0
0
0
0
0
0
0
0
0
0
0
0
0
0
0
0
0
0
0
0
0
0
0
0
0
0
0
0
0
0
0
0
0
0
0
0
0
0
0
0
0
0
0
0
0
0
0
0
0
0
0
0
0
0
0
0
0
0
0
0
0
0
0
0
0
0
0
0
0
0
0
0
0
0
0
0
0
0
0
0
0
0
0
0
0
0
0
0
0
0
0
0
0
0
0
0
0
0
0
0
0
0
0
0
0
0
0
0
0
0
0
0
0
0
0
0
0
0
0
0
0
0
0
0
0
0
0
0
0
0
0
0
0
0
0
0
0
0
0
0
0
0
0
0
0
0
0
0
0
0
0
0
0
0
0
0
0
0
0
0
0
0
0
0
0
0
0
0
0
0
0
0
0
0
0
0
0
0
0
0
0
0
0
0
0
0
0
0
0
0
0
0
0
0
0
0
0
0
0
0
0
0
0
0
0
0
0
0
0
0
0
0
0
0
0
0
0
0
0
0
0
0
0
0
0
0
0
0
0
0
0
0
0
0
0
0
0
0
0
0
0
0
0
0
0
0
0
0
0
0
0
0
0
0
0
0
0
0
0
0
0
0
0
0
0
0
0
0
0
0
0
0
0
0
0
0
0
0
0
0
0
0
0
0
0
0
0
0
0
0
0
0
0
0
0
0
0
0
0
0
0
0
0
0
0
0
0
0
0
0
0
0
0
0
0
0
0
0
0
0
0
0
0
0
0
0
0
0
0
0
0
0
0
0
0
0
0
0
0
0
0
0
0
0
0
0
0
0
0
0
0
0
0
0
0
0
0
0
0
0
0
0
0
0
0
0
0
0
0
0
0
0
0
0
0
0
0
0
0
0
0
0
0
0
0
0
0
0
0
0
0
0
0
0
0
0
0
0
0
0
0
0
0
0
0
0
0
0
0
0
0
0
0
0
0
0
0
0
0
0
0
0
0
0
0
0
0
0
0
0
0
0
0
0
0
0
0
0
0
0
0
0
0
0
0
0
0
0
0
0
0
0
0
0
0
0
0
0
0
0
0
0
0
0
0
0
0
0
0
0
0
0
0
0
0
0
0
0
0
0
0
0
0
0
0
0
0
0
0
0
0
0
0
0
0
0
0
0
0
0
0
0
0
0
0
0
0
0
0
0
0
0
0
0
0
0
0
0
0
0
0
0
0
0
0
0
0
0
0
0
0
0
0
0
0
0
0
0
0
0
0
0
0
0
0
0
0
0
0
0
0
0
0
0
0
0
0
0
0
0
0
0
0
0
0
0
0
0
0
0
0
0
0
0
0
0
0
0
0
0
0
0
0
0
0
0
0
0
0
0
0
0
0
0
0
0
0
0
0
0
0
0
0
0
0
0
0
0
0
0
0
0
0
0
0
0
0
0
0
0
0
0
0
0
0
0
0
0
0
0
0
0
0
0
0
0
0
0
0
0
0
0
0
0
0
0
0
0
0
0
0
0
0
0
0
0
0
0
0
0
0
0
0
0
0
0
0
0
0
0
0
0
0
0
0
0
0
0
0
0
0
0
0
0
0
0
0
0
0
0
0
0
0
0
0
0
0
0
0
0
0
0
0
0
0
0
0
0
0
0
0
0
0
0
0
0
0
0
0
0
0
0
0
0
0
0
0
0
0
0
0
0
0
0
0
0
0
0
0
0
0
0
0
0
0
0
0
0
0
0
0
0
0
0
0
0
0
0
0
0
0
0
0
0
0
0
0
0
0
0
0
0
0
0
0
0
0
0
0
0
0
0
0
0
0
0
0
0
0
0
0
0
0
0
0
0
0
0
0
0
0
0
0
0
0
0
0
0
0
0
0
0
0
0
0
0
0
0
0
0
0
0
0
0
0
0
0
0
0
0
0
0
0
0
0
0
0
0
0
0
0
0
0
0
0
0
0
0
0
0
0
0
0
0
0
0
0
0
0
0
0
0
0
0
0
0
0
0
0
0
0
0
0
0
0
0
0
0
0
0
0
0
0
0
0
0
0
0
0
0
0
0
0
0
0
0
0
0
0
0
0
0
0
0
0
0
0
0
0
0
0
0
0
0
0
0
0
0
0
0
0
0
0
0
0
0
0
0
0
0
0
0
0
0
0
0
0
0
0
0
0
0
0
0
0
0
0
0
0
0
0
0
0
0
0
0
0
0
0
0
0
0
0
0
0
0
0
0
0
0
0
0
0
0
0
0
0
0
0
0
0
0
0
0
0
0
0
0
0
0
0
0
0
0
0
0
0
0
0
0
0
0
0
0
0
0
0
0
0
0
0
0
0
0
0
0
0
0
0
0
0
0
0
0
0
0
0
0
0
0
0
0
0
0
0
0
0
0
0
0
0
0
0
0
0
0
0
0
0
0
0
0
0
0
0
0
0
0
0
0
0
0
0
0
0
0
0
0
0
0
0
0
0
0
0
0
0
0
0
0
0
0
0
0
0
0
0
0
0
0
0
0
0
0
0
0
0
0
0
0
0
0
0
0
0
0
0
0
0
0
0
0
0
0
0
0
0
0
0
0
0
0
0
0
0
0
0
0
0
0
0
0
0
0
0
0
0
0
0
0
0
0
0
0
0
0
0
0
0
0
0
0
0
0
0
0
0
0
0
0
0
0
0
0
0
0
0
0
0
0
0
0
0
0
0
0
0
0
0
0
0
0
0
0
0
0
0
0
0
0
0
0
0
0
0
0
0
0
0
0
0
0
0
0
0
0
0
0
0
0
0
0
0
0
0
0
0
0
0
0
0
0
0
0
0
0
0
0
0
0
0
0
0
0
0
0
0
0
0
0
0
0
0
0
0
0
0
0
0
0
0
0
0
0
0
0
0
0
0
0
0
0
0
0
0
0
0
0
0
0
0
0
0
0
0
0
0
0
0
0
0
0
0
0
0
0
0
0
0
0
0
0
0
0
0
0
0
0
0
0
0
0
0
0
0
0
0
0
0
0
0
0
0
0
0
0
0
0
0
0
0
0
0
0
0
0
0
0
0
0
0
0
0
0
0
0
0
0
0
0
0
0
0
0
0
0
0
0
0
0
0
0
0
0
0
0
0
0
0
0
0
0
0
0
0
0
0
0
0
0
0
0
0
0
0
0
0
0
0
0
0
0
0
0
0
0
0
0
0
0
0
0
0
0
0
0
0
0
0
0
0
0
0
0
0
0
0
0
0
0
0
0
0
0
0
0
0
0
0
0
0
0
0
0
0
0
0
0
0
0
0
0
0
0
0
0
0
0
0
0
0
0
0
0
0
0
0
0
0
0
0
0
0
0
0
0
0
0
0
0
0
0
0
0
0
0
0
0
0
0
0
0
0
0
0
0
0
0
0
0
0
0
0
0
0
0
0
0
0
0
0
0
0
0
0
0
0
0
0
0
0
0
0
0
0
0
0
0
0
0
0
0
0
0
0
0
0
0
0
0
0
0
0
0
0
0
0
0
0
0
0
0
0
0
0
0
0
0
0
0
0
0
0
0
0
0
0
0
0
0
0
0
0
0
0
0
0
0
0
0
0
0
0
0
0
0
0
0
0
0
0
0
0
0
0
0
0
0
0
0
0
0
0
0
0
0
0
0
0
0
0
0
0
0
0
0
0
0
0
0
0
0
0
0
0
0
0
0
0
0
0
0
0
0
0
0
0
0
0
0
0
0
0
0
0
0
0
0
0
0
0
0
0
0
0
0
0
0
0
0
0
0
0
0
0
0
0
0
0
0
0
0
0
0
0
0
0
0
0
0
0
0
0
0
0
0
0
0
0
0
0
0
0
0
0
0
0
0
0
0
0
0
0
0
0
0
0
0
0
0
0
0
0
0
0
0
0
0
0
0
0
0
0
0
0
0
0
0
0
0
0
0
0
0
0
0
0
0
0
0
0
0
0
0
0
0
0
0
0
0
0
0
0
0
0
0
0
0
0
0
0
0
0
0
0
0
0
0
0
0
0
0
0
0
0
0
0
0
0
0
0
0
0
0
0
0
0
0
0
0
0
0
0
0
0
0
0
0
0
0
0
0
0
0
0
0
0
0
0
0
0
0
0
0
0
0
0
0
0
0
0
0
0
0
0
0
0
0
0
0
0
0
0
0
0
0
0
0
0
0
0
0
0
0
0
0
0
0
0
0
0
0
0
0
0
0
0
0
0
0
0
0
0
0
0
0
0
0
0
0
0
0
0
0
0
0
0
0
0
0
0
0
0
0
0
0
0
-9.68369e-322
-2.91894e-320
1.91287e-319
-9.55681e-319
3.33676e-318
1.54688e-318
-1.3999e-317
1.66662e-317
-7.72443e-317
2.60791e-316
2.81439e-317
-2.70684e-315
8.67496e-315
-3.49264e-314
-7.28612e-315
2.53706e-314
3.24674e-314
-2.06299e-313
1.53322e-312
-9.88697e-314
-1.1757e-312
-3.02127e-312
-2.47516e-312
2.02252e-312
6.60894e-312
6.95582e-312
-1.17594e-311
-7.68191e-312
7.41981e-313
5.76009e-312
5.42021e-312
-3.54122e-312
2.87364e-311
-4.67113e-312
-1.78391e-311
-1.13594e-311
-2.44743e-311
1.46539e-311
2.01619e-311
4.7427e-312
5.77911e-312
5.14421e-312
-9.93341e-312
-1.62321e-311
7.16974e-312
-2.90344e-311
3.94457e-311
-5.91499e-312
-2.12917e-311
2.47118e-311
3.53195e-314
-3.55331e-312
-1.74718e-311
9.88977e-312
-2.70959e-312
4.23487e-312
2.18751e-312
-3.01267e-313
-3.29712e-313
-4.36434e-313
-3.5554e-313
-1.44227e-313
-1.32635e-314
1.51233e-313
-7.87476e-315
-4.4791e-314
0
0
0
0
0
0
-7.0849e-321
4.71141e-320
-2.65111e-319
1.95135e-318
-9.76364e-318
2.67392e-317
-3.71014e-317
2.27023e-316
-2.78735e-317
-2.38822e-316
-8.57368e-316
4.98203e-315
-3.42316e-314
2.46907e-313
-1.43978e-312
6.16175e-312
-2.72589e-311
1.54982e-310
-6.20634e-310
2.21768e-309
-4.77079e-309
8.28927e-309
-2.63687e-308
9.16531e-309
1.90608e-307
-2.62215e-307
1.18845e-306
1.19733e-306
-2.46711e-305
5.95036e-305
1.40146e-304
-9.96996e-304
7.00846e-304
1.53521e-303
-2.74238e-303
8.71165e-304
-9.03274e-303
8.65911e-303
1.6235e-301
-1.11351e-300
4.01342e-300
-1.14901e-299
-4.22725e-300
2.95707e-298
-8.17717e-298
-2.18548e-298
6.70789e-298
7.14575e-298
2.22519e-298
-4.43303e-298
-1.14963e-297
-6.87711e-298
1.06881e-297
1.84938e-297
-1.66427e-297
-4.23528e-297
1.50869e-296
-1.98559e-297
-2.0067e-296
-1.23149e-296
1.1778e-296
2.44959e-296
5.83312e-297
-7.81947e-297
-1.43055e-296
-1.09904e-296
6.78138e-297
1.54066e-296
4.76175e-297
-1.88104e-296
7.099e-298
-3.1786e-297
-1.0274e-296
2.79263e-297
2.96017e-296
1.7276e-296
-9.29506e-297
-1.36931e-296
-1.19874e-296
-1.07331e-296
4.42526e-297
8.63749e-297
5.40162e-297
1.37596e-298
-2.32917e-297
-1.52935e-297
-2.57837e-299
4.03264e-298
2.51914e-298
5.6561e-299
-8.58907e-299
6.32258e-299
1.18162e-299
-7.29922e-299
1.01049e-310
-4.22615e-310
2.03423e-309
-7.3892e-309
5.72196e-308
-1.79153e-307
1.29276e-306
-9.94904e-306
1.90695e-305
-5.01298e-304
2.31499e-303
-1.54865e-302
5.2622e-302
-1.6959e-301
1.48862e-302
6.60577e-302
1.29163e-301
-4.49254e-301
4.24598e-300
-2.94018e-299
1.7358e-298
-1.08327e-297
5.43704e-297
-2.44316e-296
9.52118e-296
-2.94875e-295
1.20993e-294
-2.1278e-294
2.21883e-294
6.33523e-294
-5.91311e-293
2.97829e-292
-9.88282e-292
2.44271e-291
-1.32152e-291
-6.85119e-291
-8.11082e-290
5.24393e-289
-9.69955e-289
-4.74844e-289
2.44053e-289
-7.03907e-289
9.95716e-288
1.26438e-288
-3.66667e-287
1.64878e-286
-5.9746e-286
1.15567e-285
1.56388e-284
-1.31211e-283
2.22966e-283
1.36707e-283
-5.98343e-284
-2.0284e-283
-1.70034e-283
-2.87521e-284
7.29107e-284
8.00314e-283
-1.80507e-283
-6.94135e-283
-2.51917e-283
2.37746e-282
-8.61908e-282
-1.68336e-282
4.38733e-282
5.74868e-282
3.08411e-282
-3.74053e-282
-1.9691e-282
-5.70673e-283
3.57064e-283
1.4191e-282
7.4559e-283
-2.60129e-282
-3.07725e-282
2.77813e-282
-3.55741e-282
3.01357e-283
7.49925e-282
6.50228e-282
-1.60589e-282
-3.85113e-282
-4.30378e-282
-2.50955e-282
1.20859e-283
2.40324e-282
1.8461e-282
1.63959e-284
-7.4789e-283
-5.09225e-283
1.71563e-284
1.50166e-283
8.61986e-284
7.4908e-285
-2.09566e-284
-1.59715e-284
8.81401e-285
-5.44654e-284
-7.01877e-284
7.02585e-284
-2.10558e-296
1.88703e-295
-9.88459e-295
7.75421e-294
-3.14286e-293
2.34136e-292
-1.79994e-291
6.19064e-291
-4.28242e-290
1.55472e-289
-1.03375e-288
2.94287e-288
-1.82616e-287
1.17826e-286
-2.51936e-287
8.00928e-288
-1.93818e-287
3.46232e-288
-3.61738e-286
3.11151e-285
-2.39436e-284
1.15329e-283
-6.40176e-283
3.45744e-282
-1.71205e-281
7.66558e-281
-1.10599e-280
2.96565e-280
-2.04635e-281
-6.76169e-279
5.77665e-278
-6.88771e-278
2.09951e-277
-8.72339e-277
1.77033e-276
2.72763e-276
9.73095e-276
-1.18548e-274
2.5134e-274
7.4907e-274
-2.92011e-274
4.76374e-275
-4.26201e-273
8.83161e-273
2.07871e-272
-5.10926e-272
7.13104e-272
4.63256e-271
-4.75565e-270
1.8709e-269
-2.12445e-269
-3.31619e-269
-1.69855e-268
1.72164e-268
2.52106e-268
8.34799e-269
-1.43633e-268
-3.521e-268
-2.46389e-269
1.00097e-267
-1.22524e-267
-1.53041e-267
2.05623e-267
-4.58928e-268
-5.8251e-267
7.02958e-267
4.68131e-268
1.58146e-267
2.5491e-267
-3.05087e-267
7.41649e-268
-3.42754e-267
-1.85866e-267
3.08444e-268
1.64377e-267
-5.35694e-267
4.00045e-267
3.55472e-267
6.61532e-268
-9.78696e-268
-1.56423e-267
-1.33063e-267
-1.49572e-269
6.30305e-268
6.09643e-268
1.66799e-268
-2.27428e-268
-8.46132e-269
5.82834e-269
8.11849e-269
4.78841e-269
-2.19928e-268
1.31587e-268
9.2968e-269
6.41676e-270
-9.93345e-270
-1.37627e-268
1.91419e-269
5.55447e-269
2.48827e-269
1.10551e-281
-7.23921e-281
5.08503e-280
-3.45204e-279
2.2775e-278
-1.41721e-277
8.16674e-277
-4.1859e-276
1.71084e-275
-1.1604e-274
4.6125e-274
-2.956e-273
1.90499e-272
-7.90075e-272
2.39665e-271
-2.01659e-272
-3.03273e-272
-8.83202e-272
6.56526e-271
-1.18772e-270
5.46323e-270
-4.10422e-269
2.6441e-268
-1.37816e-267
5.99505e-267
-2.10406e-266
7.26098e-266
-7.22974e-266
-4.49659e-265
5.42047e-264
-3.02379e-263
1.42139e-262
-3.9362e-262
7.19442e-262
4.70666e-262
-7.10638e-261
4.284e-260
-9.24536e-260
5.67307e-260
2.67327e-259
-3.25151e-259
-6.30758e-259
9.05097e-258
-1.49097e-258
-9.05765e-258
-6.62489e-258
3.6799e-258
-7.90635e-257
4.42171e-256
-1.13437e-255
-1.36248e-255
3.14418e-254
-1.03958e-253
-1.36333e-254
1.47102e-253
1.17489e-253
-5.71765e-254
1.20785e-253
-4.29633e-253
-9.71797e-253
-1.09615e-253
3.141e-253
3.98851e-252
3.28317e-252
-5.78999e-252
-9.78086e-252
-1.29018e-252
5.34632e-252
1.11663e-251
7.98864e-252
-4.13419e-252
-9.43972e-252
-8.19213e-252
-4.83937e-253
4.12228e-252
5.04556e-252
2.8905e-252
-3.51088e-253
-2.1904e-252
-1.81721e-252
-4.97808e-253
3.03049e-253
1.65635e-252
-2.43382e-253
-5.53177e-253
-1.76822e-253
-1.14115e-253
2.1709e-253
2.35312e-253
-2.7076e-254
-6.33231e-254
2.16904e-253
-1.28462e-253
-1.79074e-253
-1.49749e-253
-2.19092e-254
5.95499e-254
7.72486e-254
2.19654e-254
-2.13853e-254
3.9828e-267
1.28478e-266
-6.18584e-266
4.58092e-265
-3.53217e-264
2.64715e-263
-1.93982e-262
1.38811e-261
-9.69022e-261
3.70961e-260
-2.38082e-259
1.54091e-258
-4.41778e-258
2.56655e-257
-1.51264e-256
8.47514e-256
-2.03764e-255
-1.24447e-256
3.51783e-256
3.62886e-256
1.58314e-256
2.25784e-255
-1.61421e-254
1.03042e-253
-5.59883e-253
2.64905e-252
-1.07034e-251
3.43659e-251
6.08843e-251
-6.14578e-250
3.65027e-249
-1.66768e-248
2.11489e-248
-1.15206e-248
-2.64441e-247
2.19654e-246
-1.03687e-245
1.51484e-245
-1.60115e-245
-9.3974e-245
2.9409e-244
2.11681e-244
-3.69192e-243
7.31172e-243
1.03253e-242
-6.90746e-242
2.66363e-241
-4.72149e-241
-3.95974e-241
2.0481e-241
1.77488e-240
-7.13369e-240
2.39789e-239
2.81497e-239
-1.47216e-239
1.2024e-240
-1.3566e-238
-1.09011e-238
-2.85056e-238
8.49813e-238
9.55652e-238
1.82312e-238
-1.23897e-237
-2.03387e-237
-3.03674e-238
1.06873e-237
2.17789e-237
9.65885e-238
-3.15655e-238
-1.78403e-237
-1.32535e-237
-1.11587e-238
4.9237e-238
9.98554e-238
5.65073e-238
-2.92229e-239
-3.3771e-238
-3.11581e-238
-1.30176e-238
2.46753e-239
9.24028e-239
-6.00831e-239
8.70816e-238
-1.68608e-238
-1.53989e-238
-6.53075e-238
-3.37856e-238
-3.03743e-239
4.21908e-238
2.63268e-238
2.94168e-239
-6.88786e-239
-9.17629e-239
-2.192e-239
1.93841e-239
2.27213e-239
1.0282e-239
-5.4481e-241
-1.09391e-239
6.47326e-240
3.38628e-252
-5.2685e-252
3.33142e-251
-8.50785e-251
-6.88097e-250
1.24617e-248
-9.14144e-248
5.85e-247
-3.24498e-246
2.13668e-245
-1.05211e-244
5.84277e-244
-3.14132e-243
1.36415e-242
-6.30646e-242
2.83682e-241
-1.1668e-240
3.50922e-240
-5.95715e-240
1.53942e-239
-4.67854e-239
9.57979e-239
-4.56255e-239
-5.90302e-238
-1.94969e-238
-3.77758e-237
-2.14197e-237
1.41211e-236
-1.27285e-236
-1.66415e-235
9.80747e-235
-3.98796e-234
1.16559e-233
-4.84332e-234
-1.42777e-232
7.38042e-232
-1.89705e-231
3.41366e-231
6.24043e-231
-4.96686e-230
1.30334e-229
-9.72031e-230
-3.1142e-229
-2.69003e-230
3.93437e-228
-1.22615e-227
4.48308e-227
-9.36503e-227
2.09476e-227
4.05297e-225
-4.92213e-225
-8.96847e-225
2.84107e-225
9.99194e-225
6.66618e-225
2.49061e-224
1.14667e-224
-7.11195e-224
-1.3149e-223
-2.30537e-224
2.21342e-223
2.31342e-223
8.32039e-224
-2.25018e-223
-3.89999e-223
-2.67436e-223
1.46205e-223
4.20707e-223
3.44339e-223
1.03403e-223
-2.07497e-223
-3.36514e-223
-2.08652e-223
-1.1358e-223
6.70986e-224
1.20449e-223
1.48694e-223
1.03075e-222
-3.02296e-223
-6.9036e-223
-7.88798e-223
-7.22045e-224
4.45887e-223
4.25731e-223
2.85339e-223
1.04599e-223
-2.42926e-223
-1.88348e-223
-6.26813e-224
2.50861e-224
6.86563e-224
3.37565e-224
-6.72307e-225
-1.88107e-224
-1.14369e-224
-8.4458e-225
-4.35351e-226
1.12234e-224
1.19154e-224
-2.15555e-225
-1.64598e-237
2.30003e-237
-1.89749e-236
1.43302e-235
-7.93534e-235
4.56153e-236
1.18775e-233
-8.24088e-233
5.46841e-232
-3.70478e-231
1.50187e-230
-8.95735e-230
5.29139e-229
-2.99582e-228
1.2922e-227
-6.69152e-227
2.48243e-226
-1.15327e-225
2.43416e-225
-3.23361e-225
1.2599e-224
-3.29655e-224
2.01777e-224
-1.06637e-223
4.33793e-223
9.79032e-223
3.41522e-223
-6.88955e-222
9.57926e-222
1.31948e-221
-5.25232e-221
2.95332e-220
-1.61776e-219
3.16466e-219
2.2295e-218
-1.21973e-217
2.22043e-217
5.60992e-217
-3.51686e-216
1.98538e-215
-6.06906e-215
4.86462e-215
8.12515e-215
8.1055e-215
-8.24803e-214
-1.03903e-214
-1.33695e-212
9.0924e-212
5.10714e-212
-6.52874e-211
-1.36171e-211
2.17052e-210
-6.63002e-211
1.97722e-211
4.37445e-210
-1.03046e-209
-2.23362e-209
-7.14318e-211
3.86705e-209
4.82273e-209
8.57447e-210
-5.35769e-209
-7.88504e-209
-3.89821e-209
2.39135e-209
8.95875e-209
8.58375e-209
2.48747e-209
-5.99692e-209
-7.7666e-209
-2.41346e-209
-1.51875e-209
-4.04506e-209
4.89959e-209
4.80035e-209
1.84727e-208
1.18084e-208
-5.18645e-208
-9.52816e-209
1.12913e-208
8.159e-209
1.36225e-208
1.02992e-208
5.71124e-209
-8.51577e-209
-8.84124e-209
-2.24816e-210
-2.61815e-209
1.16087e-209
1.45e-209
-1.38097e-210
-3.53075e-210
-1.4127e-210
-1.07598e-210
-4.57533e-210
5.24528e-210
6.64208e-210
3.19805e-210
-3.35404e-210
-2.59878e-210
-7.90321e-223
1.84065e-222
-1.02267e-221
5.85986e-221
-4.18679e-220
2.39321e-219
-1.25029e-218
3.23955e-218
-3.53354e-218
-1.87546e-216
1.82617e-215
-7.09172e-215
1.80703e-214
-7.60465e-214
5.34862e-213
-1.8701e-212
4.74937e-212
-1.91455e-211
1.51357e-210
-2.42044e-210
6.28944e-210
-4.80932e-210
-6.74663e-209
6.62964e-208
-4.06123e-207
1.3445e-206
-2.00868e-206
-1.08423e-206
-2.42453e-205
-3.58705e-205
9.72239e-206
1.65887e-205
-3.17718e-205
-9.1808e-205
1.62084e-204
5.54096e-203
-1.05712e-202
3.66405e-202
-1.20069e-201
1.41643e-201
-3.89308e-201
-7.51836e-201
5.5603e-200
-1.28236e-199
1.44357e-199
-2.80715e-198
1.02905e-197
-5.89106e-198
-1.16831e-196
3.9281e-196
7.87629e-197
-1.11538e-195
-6.61614e-196
1.65453e-195
2.56154e-195
2.93446e-196
-3.26497e-195
-4.25806e-195
-7.48733e-196
3.68403e-195
8.23647e-195
8.77499e-195
2.62685e-195
-1.10789e-194
-2.10036e-194
2.10394e-194
-2.18145e-194
5.08115e-195
-7.36987e-195
-8.70235e-196
3.83632e-194
-1.31576e-194
-6.35999e-194
-4.36529e-194
-1.36251e-194
2.48804e-193
-1.57187e-193
-1.7982e-193
1.11378e-193
6.4758e-194
-2.32416e-193
1.06859e-193
2.22337e-193
7.82538e-194
2.24892e-194
-7.93257e-194
-8.24937e-194
-2.67306e-194
-2.05098e-194
4.08458e-194
7.45342e-196
2.75975e-195
5.44823e-195
-1.45499e-195
-1.12807e-194
-6.5821e-195
1.4522e-195
3.41155e-195
2.33769e-195
1.4178e-196
-1.69751e-208
5.22102e-208
-3.40899e-207
2.42691e-206
-1.24786e-205
8.4399e-205
-5.66614e-204
3.69129e-203
-2.33793e-202
1.43681e-201
-8.55142e-201
4.91711e-200
5.02193e-200
-3.02442e-199
-1.8461e-198
8.88634e-198
-3.32501e-198
1.71608e-196
-6.26584e-196
3.02012e-197
-3.22261e-196
-2.75478e-196
-2.81811e-194
4.97683e-197
1.66165e-192
-7.76678e-192
1.84669e-191
-6.23105e-191
1.55829e-190
1.50302e-190
1.01766e-190
2.71361e-190
-1.10631e-189
-6.55265e-190
-7.37801e-189
3.89418e-188
-1.03971e-187
4.94349e-188
1.78093e-187
-1.2877e-186
1.48573e-186
-1.91141e-185
6.04172e-185
-5.84845e-185
-3.97056e-184
2.33674e-183
-1.77973e-183
-6.18311e-183
5.64945e-182
-9.73858e-182
-1.32784e-181
3.36742e-181
1.62641e-181
5.25933e-182
-5.51038e-181
-1.05599e-180
7.90075e-181
2.5191e-180
1.65733e-180
-5.7735e-180
1.07264e-180
2.75268e-180
-1.2334e-179
-1.78858e-179
1.29695e-180
2.76366e-179
3.78966e-179
1.85819e-179
-2.29935e-179
-4.78575e-179
-3.60454e-179
-9.59467e-180
2.29717e-179
3.19364e-179
5.14799e-179
-1.33522e-178
2.45551e-178
-5.87641e-179
-1.51038e-178
-8.8368e-179
1.55769e-178
-1.22026e-178
1.90766e-178
-2.1222e-179
-4.2918e-179
-4.53093e-179
-1.12317e-179
8.58888e-180
5.30511e-179
-1.42961e-179
-2.56325e-179
-6.36463e-180
1.36841e-179
7.1574e-180
1.7466e-180
-9.69674e-181
-1.26273e-180
-5.46069e-181
-2.37935e-181
2.80213e-181
5.63002e-194
-1.63801e-193
1.28014e-192
-1.04425e-191
5.73849e-191
-5.29249e-190
3.49902e-189
-2.21667e-188
1.86065e-187
-8.12603e-187
6.45536e-186
-3.63183e-185
1.03778e-184
-7.45285e-184
2.69216e-183
-8.08275e-183
3.47978e-182
-7.70514e-182
4.25835e-181
-5.76403e-181
-5.24675e-181
9.0198e-180
-4.14165e-179
3.65279e-178
-1.17922e-177
2.30237e-177
-8.127e-177
5.38195e-177
-3.74359e-176
-6.98253e-176
1.54707e-175
3.0236e-175
-7.92564e-175
-1.36439e-175
2.19843e-175
1.15938e-173
-5.57098e-174
-7.24276e-173
4.26915e-172
-1.28608e-171
-7.4179e-172
6.30043e-171
-8.43591e-171
1.01137e-171
1.40889e-169
-3.26964e-169
-1.89663e-169
2.85127e-168
-1.20536e-167
1.4622e-167
7.84675e-167
-4.51973e-167
-1.44312e-166
-1.55455e-166
3.02477e-166
8.09304e-166
-1.48543e-166
-1.49524e-165
-1.91281e-165
5.12453e-166
4.29583e-165
4.0158e-165
-4.94533e-166
-5.75005e-165
-7.01606e-165
-2.68075e-165
4.15121e-165
7.99729e-165
7.2316e-165
-1.09672e-165
-7.80961e-165
5.9959e-164
-4.06408e-164
-6.82842e-164
-1.78084e-163
3.63321e-164
2.26907e-163
2.56118e-164
1.49997e-163
-2.71609e-164
-1.83609e-163
-2.22833e-163
7.35903e-164
6.10487e-164
1.03312e-163
7.28778e-164
-6.28366e-165
-5.51617e-164
-3.71683e-164
-1.21228e-164
9.6464e-165
1.07746e-164
3.19414e-165
-3.96336e-166
-1.90123e-165
-9.85786e-166
1.37335e-166
4.58911e-168
3.20008e-166
1.91564e-166
-9.22236e-180
3.05858e-179
-3.29571e-178
3.3538e-177
-3.36367e-176
2.6995e-175
-1.72889e-174
1.11183e-173
-6.94781e-173
4.11685e-172
-2.10094e-171
1.01379e-170
-4.96225e-170
2.17479e-169
-9.42013e-169
3.78877e-168
-1.2797e-167
3.73929e-167
-8.3106e-167
7.25604e-167
8.4767e-166
-6.74357e-165
3.60566e-164
-1.37922e-163
4.98677e-163
-1.52223e-162
3.59695e-162
-5.92057e-162
-4.77948e-163
4.16089e-161
-1.7644e-160
4.2696e-160
-4.32231e-160
-1.45577e-159
5.94549e-159
-1.26165e-158
9.44977e-159
5.4473e-158
-2.32866e-157
2.69429e-157
5.95717e-157
-3.22128e-156
6.79441e-156
6.73891e-156
-8.06771e-155
1.86854e-154
1.03344e-154
-2.27849e-153
5.55322e-153
5.95113e-153
-3.76028e-152
-5.29938e-153
6.7873e-152
7.45586e-152
-4.30274e-152
-2.14215e-151
-1.7925e-151
1.71177e-151
4.93063e-151
4.70614e-151
-1.61523e-151
-1.20362e-150
-6.57028e-151
-3.50013e-151
1.06637e-150
-7.99913e-152
-5.52069e-150
1.27276e-149
3.6473e-149
1.28918e-149
-4.18714e-149
-9.01319e-149
-1.06647e-148
4.73962e-149
1.58834e-148
1.64007e-148
4.67086e-149
-9.04672e-149
-1.75184e-148
-1.44708e-148
-8.75417e-150
9.01121e-149
9.73478e-149
5.11285e-149
1.72176e-150
-2.93706e-149
-2.69858e-149
-9.3988e-150
2.35484e-150
5.90996e-150
6.58389e-150
-3.44128e-150
-2.41894e-150
-5.31152e-151
8.96144e-151
1.28803e-150
6.11559e-151
-3.55138e-151
-5.74993e-151
-1.56073e-151
-4.64141e-164
9.40868e-165
-1.18555e-163
8.07891e-163
-5.29339e-162
8.61826e-162
-4.81896e-161
3.00658e-160
-1.77501e-159
-2.33918e-158
1.30806e-157
-6.05525e-157
3.00941e-156
-1.55224e-155
6.83672e-155
-2.5217e-154
8.21013e-154
-2.15347e-153
3.1125e-153
1.02587e-152
-1.47698e-151
8.80018e-151
-4.5441e-150
1.72348e-149
-6.56766e-149
2.13953e-148
-4.26866e-148
6.98286e-148
1.09614e-147
-7.69198e-147
2.95178e-146
-4.67464e-146
1.04432e-146
3.39755e-145
-1.41466e-144
1.52946e-144
1.12408e-145
-1.35585e-143
4.15597e-143
-3.42134e-143
-1.14477e-142
3.64237e-142
-8.67957e-142
-1.0771e-141
6.032e-141
-6.39264e-141
-1.77209e-140
1.8221e-139
-2.89626e-139
-1.22365e-138
2.91609e-138
3.33388e-138
-5.71117e-138
-4.54387e-138
-5.83928e-138
3.45947e-138
1.5224e-137
4.47897e-138
1.38085e-137
-1.17142e-137
-5.55104e-137
5.7677e-137
-2.83678e-136
-5.16599e-137
-1.0643e-136
1.24552e-135
3.91846e-135
8.93692e-136
-1.1799e-134
-1.18223e-134
-6.21176e-135
1.56821e-134
3.44061e-134
1.92922e-134
-1.11675e-135
-2.95618e-134
-3.37033e-134
-2.2154e-134
5.22868e-135
1.8742e-134
2.13149e-134
1.0594e-134
-2.14233e-135
-6.09913e-135
-5.31922e-135
-2.63292e-135
2.70893e-137
9.42472e-136
8.14955e-136
5.37865e-136
-2.30417e-135
7.18282e-136
9.70565e-136
4.42809e-136
-3.85906e-137
-2.26014e-136
-1.87582e-136
-7.79578e-137
2.22253e-138
2.49429e-137
-1.27308e-149
2.81839e-149
1.30477e-148
-9.47222e-148
-5.6983e-147
3.79001e-146
-2.25805e-145
1.32999e-144
-7.57727e-144
-2.0563e-144
1.47845e-143
-6.23645e-143
3.06127e-142
-1.36225e-141
5.64509e-141
-2.10574e-140
6.64769e-140
-1.44095e-139
-9.27862e-140
3.50373e-138
-2.65697e-137
1.47647e-136
-6.8598e-136
2.75167e-135
-9.49336e-135
2.71045e-134
-5.63861e-134
3.49586e-134
3.76699e-133
-2.25452e-132
7.28924e-132
-7.56659e-132
-1.83596e-131
1.77017e-130
-5.41463e-130
5.36187e-130
1.17482e-129
-6.99478e-129
1.24454e-128
4.76464e-130
-6.04301e-128
1.11182e-127
-1.18259e-127
-3.2305e-127
3.91563e-127
-1.59892e-126
3.97283e-126
-1.88889e-125
-8.60019e-126
3.59489e-124
-2.65006e-124
-1.31669e-123
1.7485e-124
2.88864e-123
2.35647e-123
-3.72828e-123
-3.92767e-123
-1.48706e-122
-2.65312e-123
1.20134e-122
8.97926e-122
7.16844e-122
-5.65367e-122
-4.53958e-121
-6.00083e-121
1.61571e-121
1.81452e-120
2.28472e-120
-6.44166e-121
-4.66262e-120
-5.48312e-120
-2.05097e-120
3.43783e-120
7.17215e-120
6.67989e-120
2.56435e-120
-2.27723e-120
-4.99179e-120
-4.62831e-120
-2.27013e-120
2.1311e-121
1.53881e-120
1.54905e-120
8.54292e-121
1.55118e-121
-1.95219e-121
-2.17034e-121
-1.00658e-121
-1.69402e-122
2.50948e-121
-1.6415e-120
9.84477e-120
-9.37867e-121
1.47891e-120
-6.84398e-120
-4.11e-120
-4.65474e-120
2.78314e-120
3.23662e-120
1.01297e-120
-5.00838e-134
7.59454e-134
-4.1816e-133
2.62135e-132
-1.39403e-131
7.78212e-131
-4.23007e-130
1.99902e-129
-9.87021e-129
4.6577e-128
-2.39921e-127
8.78347e-127
-2.66062e-126
1.21905e-125
-2.21052e-125
9.24163e-125
-2.03556e-124
6.92061e-124
-1.84935e-123
2.34632e-123
1.40323e-123
-1.60339e-122
1.17681e-121
-6.30757e-121
3.63859e-121
4.51438e-120
-1.19862e-119
-8.64797e-120
1.25058e-118
-4.4666e-118
9.42789e-118
-3.20433e-118
-7.53602e-117
3.15767e-116
-7.01887e-116
4.7623e-116
4.87063e-115
-2.34738e-114
3.21327e-114
6.31127e-114
-3.88685e-113
6.55414e-113
9.6486e-113
-4.8084e-112
6.92281e-112
1.27252e-111
-7.50104e-111
6.91564e-111
2.73834e-110
-6.5138e-110
-4.6786e-110
2.35467e-109
1.62114e-109
-6.61164e-109
-1.22862e-108
1.8158e-108
5.65721e-108
3.09816e-109
-1.58412e-107
-2.07047e-107
1.22717e-107
6.76544e-107
6.01685e-107
-4.56181e-107
-1.79015e-106
-2.61604e-106
7.39483e-107
4.52455e-106
3.40695e-106
2.45853e-107
-8.16512e-107
9.38458e-106
-3.20942e-105
-6.43466e-105
-2.81746e-105
3.89783e-105
1.20523e-104
1.64367e-104
2.28455e-106
-1.00424e-104
-1.303e-104
-4.3363e-105
-6.79732e-106
2.54286e-106
-3.65303e-105
-5.19785e-106
-3.55406e-105
6.06472e-105
2.2063e-104
5.716e-105
-4.58397e-105
-9.55003e-105
-7.53527e-105
-9.80792e-105
1.41535e-105
4.53855e-105
5.8629e-105
2.47127e-105
8.78468e-107
-1.42063e-105
9.00142e-120
-1.88091e-119
9.22705e-119
-5.60304e-118
1.42365e-117
-8.06706e-117
4.69404e-116
-2.60584e-115
1.40116e-114
-1.39882e-113
7.01434e-113
-1.68941e-112
7.79901e-112
-3.42104e-111
8.04677e-111
-3.18023e-110
2.60423e-110
-9.01078e-110
1.35911e-109
3.74614e-109
-4.68683e-108
2.7731e-107
-1.25575e-106
4.72672e-106
-1.48792e-105
1.66954e-105
-1.38556e-105
-3.30702e-105
-1.14178e-104
1.32736e-104
-3.09692e-104
-6.39067e-104
6.29368e-103
-2.14372e-102
-2.93953e-102
-1.84166e-102
-4.16401e-101
1.68984e-100
-5.48458e-101
-1.00816e-99
3.96045e-99
-2.63164e-99
-1.80407e-98
4.42876e-98
1.22353e-98
-2.31364e-97
5.42513e-97
3.84242e-97
-6.11383e-96
8.41809e-96
2.91614e-95
-5.86309e-95
-7.1735e-95
1.09595e-94
2.69192e-94
-1.79049e-95
-6.95796e-94
-7.64518e-94
6.98668e-94
2.62965e-93
2.07883e-93
-2.91589e-93
-7.29276e-93
-4.72802e-93
-5.65269e-93
7.0018e-92
-1.14066e-91
7.02545e-92
4.24351e-92
7.68849e-92
-8.0408e-91
-1.51043e-90
3.08719e-91
2.014e-90
2.17187e-90
2.80956e-90
-6.54288e-91
-2.95087e-90
-2.98256e-90
-1.87705e-90
-1.12458e-90
-2.73691e-90
2.79543e-91
1.88871e-90
2.59298e-90
7.35441e-90
9.86326e-90
-1.18833e-91
-5.30054e-90
-7.59387e-90
-5.77035e-90
-1.68387e-90
1.3555e-90
2.09454e-90
2.20344e-90
9.66797e-91
-5.63276e-92
-4.38877e-91
-3.71668e-91
-9.84513e-92
-5.32377e-105
1.05317e-104
-9.21441e-104
4.51453e-103
-2.3288e-102
1.34076e-101
-5.38024e-101
2.88674e-100
-1.5137e-99
8.90515e-99
-3.73057e-98
1.4672e-97
-4.27641e-97
1.33987e-96
-3.61218e-96
1.92138e-95
-6.27006e-95
1.35767e-94
-7.54822e-95
4.02662e-95
1.55468e-93
-9.20266e-93
3.30584e-92
-8.36843e-92
2.33369e-91
-5.11521e-91
4.04028e-91
1.46393e-90
-7.32909e-90
2.10497e-89
-2.67422e-89
-1.20862e-88
6.18172e-88
-1.45731e-87
1.67777e-87
5.74912e-87
-2.97307e-86
3.71981e-86
4.81193e-86
-2.69366e-85
2.72515e-85
3.54868e-85
-3.79267e-84
5.58733e-84
1.72472e-83
-3.99145e-83
-3.76469e-83
-3.25867e-83
8.50182e-82
9.97393e-82
-5.96968e-81
4.17122e-82
6.09035e-81
-2.30462e-80
2.91032e-80
9.94731e-80
-9.14891e-80
-4.48512e-79
4.3101e-80
1.76645e-78
1.56633e-78
-3.91264e-78
-1.17255e-77
-4.57384e-78
3.57961e-77
6.65309e-77
9.79658e-78
-1.49015e-76
-2.5934e-76
-2.14489e-76
1.81163e-76
6.45438e-76
9.57303e-76
1.89474e-76
-6.81088e-76
-1.35052e-75
-1.12565e-75
-1.33618e-75
-7.69551e-76
4.11491e-77
5.81612e-76
1.88651e-75
4.62208e-75
4.13076e-75
1.79687e-75
-1.20002e-75
-4.61847e-75
-5.21805e-75
-3.4097e-75
-6.11665e-76
1.39142e-75
2.58668e-75
1.9511e-75
8.73764e-76
-8.50386e-77
-4.04045e-76
-3.95162e-76
-2.03655e-76
-1.40549e-77
5.40954e-77
-1.68616e-90
3.24022e-90
-2.46838e-89
1.48079e-88
-9.00631e-88
4.76932e-87
-2.50584e-86
1.23167e-85
-5.80599e-85
2.62063e-84
-1.17867e-83
5.06192e-83
-2.1662e-82
7.95137e-82
-2.56292e-81
8.03682e-81
-2.24296e-80
5.98101e-80
-1.28456e-79
9.64339e-80
2.31592e-79
-1.76001e-78
6.57077e-78
-1.85793e-77
2.69326e-77
-5.03466e-77
6.23836e-77
2.88239e-76
-7.99588e-76
1.89237e-75
1.29301e-75
-1.74766e-74
6.8391e-74
-1.36818e-73
-2.47926e-74
9.41469e-73
-2.49214e-72
1.78976e-72
1.29503e-71
-5.40714e-71
4.23599e-71
2.60746e-70
-6.97293e-70
-4.85527e-70
5.6984e-69
-4.39976e-69
-3.8656e-68
1.04526e-67
1.1426e-67
-8.08897e-67
-5.54972e-69
3.47038e-66
1.02737e-66
-1.28533e-65
-4.57216e-66
3.60068e-65
2.40637e-65
-8.87e-65
-1.39839e-64
1.81611e-64
6.74631e-64
4.57314e-65
-1.64716e-63
-2.46635e-63
4.85742e-65
1.22754e-62
1.29178e-62
-1.4411e-62
-5.03181e-62
-7.11737e-62
-3.54545e-62
1.17857e-61
2.21418e-61
3.45955e-61
4.19914e-61
1.75777e-61
1.03696e-61
-5.11074e-61
-1.05283e-60
-1.17165e-60
-2.06437e-60
-1.03747e-60
9.01793e-61
2.01188e-60
2.57954e-60
1.7231e-60
7.68829e-61
-4.41648e-61
-1.10825e-60
-1.16986e-60
-7.79913e-61
-3.18491e-61
3.77323e-62
1.78745e-61
1.68481e-61
8.7383e-62
1.92882e-62
-2.12167e-62
-2.74974e-62
-8.68332e-63
-9.28052e-77
1.53304e-76
-1.12704e-75
6.44457e-75
6.57192e-74
-3.70125e-73
1.92778e-72
-9.86521e-72
4.8531e-71
-2.29641e-70
1.04175e-69
-4.5148e-69
1.86103e-68
-7.25499e-68
2.65436e-67
-9.01573e-67
2.7957e-66
-7.68906e-66
1.76584e-65
-1.71531e-65
3.8124e-66
1.88415e-64
-8.39171e-64
2.44017e-63
3.19596e-64
1.62281e-63
-5.50923e-63
-2.2888e-62
1.21627e-62
-6.73893e-62
-2.15013e-61
1.12969e-60
-3.29739e-60
3.91238e-60
8.89607e-60
-5.27088e-59
8.82551e-59
1.41452e-58
-1.05831e-57
1.81348e-57
2.85176e-57
-1.77458e-56
8.56872e-57
1.37009e-55
-3.15952e-55
-8.43606e-55
5.41929e-54
-2.1586e-54
-3.14214e-53
7.60874e-53
9.68399e-53
-2.07792e-52
-5.74371e-52
1.01626e-51
1.08443e-51
-1.89255e-51
-3.8958e-51
3.31221e-51
1.04104e-50
1.53767e-50
-5.63105e-50
-1.52413e-49
2.92495e-49
5.54696e-49
-2.39425e-49
-1.97939e-48
-2.15516e-48
3.16954e-48
5.91172e-48
1.00092e-47
1.00575e-47
-2.38319e-48
-1.81628e-47
-5.03543e-47
-9.54663e-47
-9.97394e-47
-1.93239e-46
-1.12118e-46
3.12496e-47
5.94264e-48
9.43626e-46
4.35229e-46
1.42197e-46
-7.94313e-47
-2.18873e-46
-2.66354e-46
-2.37752e-46
-1.65938e-46
-8.5801e-47
-2.24198e-47
1.32882e-47