/*--------------------------------*- C++ -*----------------------------------*\
  =========                 |
  \\      /  F ield         | OpenFOAM: The Open Source CFD Toolbox
   \\    /   O peration     | Website:  https://openfoam.org
    \\  /    A nd           | Version:  13
     \\/     M anipulation  |
\*---------------------------------------------------------------------------*/
FoamFile
{
    format      ascii;
    class       volScalarField;
    location    "0.9";
    object      T;
}
// * * * * * * * * * * * * * * * * * * * * * * * * * * * * * * * * * * * * * //

dimensions      [0 0 0 1 0 0 0];

internalField   nonuniform List<scalar> 
10000
(
0
0
0
0
0
0
0
0
0
0
0
0
0
0
0
0
0
0
0
0
0
0
0
0
0
0
0
0
0
0
0
0
0
0
0
0
0
0
0
0
0
0
0
0
0
0
0
0
0
0
0
0
0
0
0
0
0
0
0
0
0
0
0
0
0
0
0
0
0
0
0
0
0
0
0
0
0
0
0
0
0
0
0
0
0
0
0
0
0
0
0
0
0
0
0
0
0
0
0
0
0
0
0
0
0
0
0
0
0
0
0
0
0
0
0
0
0
0
0
0
0
0
0
0
0
0
0
0
0
0
0
0
0
0
0
0
0
0
0
0
0
0
0
0
0
0
0
0
0
0
0
0
0
0
0
0
0
0
0
0
0
0
0
0
0
0
0
0
0
0
0
0
0
0
0
0
0
0
0
0
0
0
0
0
0
0
0
0
0
0
0
0
0
0
0
0
0
0
0
0
0
0
0
0
0
0
0
0
0
0
0
0
0
0
0
0
0
0
0
0
0
0
0
0
0
0
0
0
0
0
0
0
0
0
0
0
0
0
0
0
0
0
0
0
0
0
0
0
0
0
0
0
0
0
0
0
0
0
0
0
0
0
0
0
0
0
0
0
0
0
0
0
0
0
0
0
0
0
0
0
0
0
0
0
0
0
0
0
0
0
0
0
0
0
0
0
0
0
0
0
0
0
0
0
0
0
0
0
0
0
0
0
0
0
0
0
0
0
0
0
0
0
0
0
0
0
0
0
0
0
0
0
0
0
0
0
0
0
0
0
0
0
0
0
0
0
0
0
0
0
0
0
0
0
0
0
0
0
0
0
0
0
0
0
0
0
0
0
0
0
0
0
0
0
0
0
0
0
0
0
0
0
0
0
0
0
0
0
0
0
0
0
0
0
0
0
0
0
0
0
0
0
0
0
0
0
0
0
0
0
0
0
0
0
0
0
0
0
0
0
0
0
0
0
0
0
0
0
0
0
0
0
0
0
0
0
0
0
0
0
0
0
0
0
0
0
0
0
0
0
0
0
0
0
0
0
0
0
0
0
0
0
0
0
0
0
0
0
0
0
0
0
0
0
0
0
0
0
0
0
0
0
0
0
0
0
0
0
0
0
0
0
0
0
0
0
0
0
0
0
0
0
0
0
0
0
0
0
0
0
0
0
0
0
0
0
0
0
0
0
0
0
0
0
0
0
0
0
0
0
0
0
0
0
0
0
0
0
0
0
0
0
0
0
0
0
0
0
0
0
0
0
0
0
0
0
0
0
0
0
0
0
0
0
0
0
0
0
0
0
0
0
0
0
0
0
0
0
0
0
0
0
0
0
0
0
0
0
0
0
0
0
0
0
0
0
0
0
0
0
0
0
0
0
0
0
0
0
0
0
0
0
0
0
0
0
0
0
0
0
0
0
0
0
0
0
0
0
0
0
0
0
0
0
0
0
0
0
0
0
0
0
0
0
0
0
0
0
0
0
0
0
0
0
0
0
0
0
0
0
0
0
0
0
0
0
0
0
0
0
0
0
0
0
0
0
0
0
0
0
0
0
0
0
0
0
0
0
0
0
0
0
0
0
0
0
0
0
0
0
0
0
0
0
0
0
0
0
0
0
0
0
0
0
0
0
0
0
0
0
0
0
0
0
0
0
0
0
0
0
0
0
0
0
0
0
0
0
0
0
0
0
0
0
0
0
0
0
0
0
0
0
0
0
0
0
0
0
0
0
0
0
0
0
0
0
0
0
0
0
0
0
0
0
0
0
0
0
0
0
0
0
0
0
0
0
0
0
0
0
0
0
0
0
0
0
0
0
0
0
0
0
0
0
0
0
0
0
0
0
0
0
0
0
0
0
0
0
0
0
0
0
0
0
0
0
0
0
0
0
0
0
0
0
0
0
0
0
0
0
0
0
0
0
0
0
0
0
0
0
0
0
0
0
0
0
0
0
0
0
0
0
0
0
0
0
0
0
0
0
0
0
0
0
0
0
0
0
0
0
0
0
0
0
0
0
0
0
0
0
0
0
0
0
0
0
0
0
0
0
0
0
0
0
0
0
0
0
0
0
0
0
0
0
0
0
0
0
0
0
0
0
0
0
0
0
0
0
0
0
0
0
0
0
0
0
0
0
0
0
0
0
0
0
0
0
0
0
0
0
0
0
0
0
0
0
0
0
0
0
0
0
0
0
0
0
0
0
0
0
0
0
0
0
0
0
0
0
0
0
0
0
0
0
0
0
0
0
0
0
0
0
0
0
0
0
0
0
0
0
0
0
0
0
0
0
0
0
0
0
0
0
0
0
0
0
0
0
0
0
0
0
0
0
0
0
0
0
0
0
0
0
0
0
0
0
0
0
0
0
0
0
0
0
0
0
0
0
0
0
0
0
0
0
0
0
0
0
0
0
0
0
0
0
0
0
0
0
0
0
0
0
0
0
0
0
0
0
0
0
0
0
0
0
0
0
0
0
0
0
0
0
0
0
0
0
0
0
0
0
0
0
0
0
0
0
0
0
0
0
0
0
0
0
0
0
0
0
0
0
0
0
0
0
0
0
0
0
0
0
0
0
0
0
0
0
0
0
0
0
0
0
0
0
0
0
0
0
0
0
0
0
0
0
0
0
0
0
0
0
0
0
0
0
0
0
0
0
0
0
0
0
0
0
0
0
0
0
0
0
0
0
0
0
0
0
0
0
0
0
0
0
0
0
0
0
0
0
0
0
0
0
0
0
0
0
0
0
0
0
0
0
0
0
0
0
0
0
0
0
0
0
0
0
0
0
0
0
0
0
0
0
0
0
0
0
0
0
0
0
0
0
0
0
0
0
0
0
0
0
0
0
0
0
0
0
0
0
0
0
0
0
0
0
0
0
0
0
0
0
0
0
0
0
0
0
0
0
0
0
0
0
0
0
0
0
0
0
0
0
0
0
0
0
0
0
0
0
0
0
0
0
0
0
0
0
0
0
0
0
0
0
0
0
0
0
0
0
0
0
0
0
0
0
0
0
0
0
0
0
0
0
0
0
0
0
0
0
0
0
0
0
0
0
0
0
0
0
0
0
0
0
0
0
0
0
0
0
0
0
0
0
0
0
0
0
0
0
0
0
0
0
0
0
0
0
0
0
0
0
0
0
0
0
0
0
0
0
0
0
0
0
0
0
0
0
0
0
0
0
0
0
0
0
0
0
0
0
0
0
0
0
0
0
0
0
0
0
0
0
0
0
0
0
0
0
0
0
0
0
0
0
0
0
0
0
0
0
0
0
0
0
0
0
0
0
0
0
0
0
0
0
0
0
0
0
0
0
0
0
0
0
0
0
0
0
0
0
0
0
0
0
0
0
0
0
0
0
0
0
0
0
0
0
0
0
0
0
0
0
0
0
0
0
0
0
0
0
0
0
0
0
0
0
0
0
0
0
0
0
0
0
0
0
0
0
0
0
0
0
0
0
0
0
0
0
0
0
0
0
0
0
0
0
0
0
0
0
0
0
0
0
0
0
0
0
0
0
0
0
0
0
0
0
0
0
0
0
0
0
0
0
0
0
0
0
0
0
0
0
0
0
0
0
0
0
0
0
0
0
0
0
0
0
0
0
0
0
0
0
0
0
0
0
0
0
0
0
0
0
0
0
0
0
0
0
0
0
0
0
0
0
0
0
0
0
0
0
0
0
0
0
0
0
0
0
0
0
0
0
0
0
0
0
0
0
0
0
0
0
0
0
0
0
0
0
0
0
0
0
0
0
0
0
0
0
0
0
0
0
0
0
0
0
0
0
0
0
0
0
0
0
0
0
0
0
0
0
0
0
0
0
0
0
0
0
0
0
0
0
0
0
0
0
0
0
0
0
0
0
0
0
0
0
0
0
0
0
0
0
0
0
0
0
0
0
0
0
0
0
0
0
0
0
0
0
0
0
0
0
0
0
0
0
0
0
0
0
0
0
0
0
0
0
0
0
0
0
0
0
0
0
0
0
0
0
0
0
0
0
0
0
0
0
0
0
0
0
0
0
0
0
0
0
0
0
0
0
0
0
0
0
0
0
0
0
0
0
0
0
0
0
0
0
0
0
0
0
0
0
0
0
0
0
0
0
0
0
0
0
0
0
0
0
0
0
0
0
0
0
0
0
0
0
0
0
0
0
0
0
0
0
0
0
0
0
0
0
0
0
0
0
0
0
0
0
0
0
0
0
0
0
0
0
0
0
0
0
0
0
0
0
0
0
0
0
0
0
0
0
0
0
0
0
0
0
0
0
0
0
0
0
0
0
0
0
0
0
0
0
0
0
0
0
0
0
0
0
0
0
0
0
0
0
0
0
0
0
0
0
0
0
0
0
0
0
0
0
0
0
0
0
0
0
0
0
0
0
0
0
0
0
0
0
0
0
0
0
0
0
0
0
0
0
0
0
0
0
0
0
0
0
0
0
0
0
0
0
0
0
0
0
0
0
0
0
0
0
0
0
0
0
0
0
0
0
0
0
0
0
0
0
0
0
0
0
0
0
0
0
0
0
0
0
0
0
0
0
0
0
0
0
0
0
0
0
0
0
0
0
0
0
0
0
0
0
0
0
0
0
0
0
0
0
0
0
0
0
0
0
0
0
0
0
0
0
0
0
0
0
0
0
0
0
0
0
0
0
0
0
0
0
0
0
0
0
0
0
0
0
0
0
0
0
0
0
0
0
0
0
0
0
0
0
0
0
0
0
0
0
0
0
0
0
0
0
0
0
0
0
0
0
0
0
0
0
0
0
0
0
0
0
0
0
0
0
0
0
0
0
0
0
0
0
0
0
0
0
0
0
0
0
0
0
0
0
0
0
0
0
0
0
0
0
0
0
0
0
0
0
0
0
0
0
0
0
0
0
0
0
0
0
0
0
0
0
0
0
0
0
0
0
0
0
0
0
0
0
0
0
0
0
0
0
0
0
0
0
0
0
0
0
0
0
0
0
0
0
0
0
0
0
0
0
0
0
0
0
0
0
0
0
0
0
0
0
0
0
0
0
0
0
0
0
0
0
0
0
0
0
0
0
0
0
0
0
0
0
0
0
0
0
0
0
0
0
0
0
0
0
0
0
0
0
0
0
0
0
0
0
0
0
0
0
0
0
0
0
0
0
0
0
0
0
0
0
0
0
0
0
0
0
0
0
0
0
0
0
0
0
0
0
0
0
0
0
0
0
0
0
0
0
0
0
0
0
0
0
0
0
0
0
0
0
0
0
0
0
0
0
0
0
0
0
0
0
0
0
0
0
0
0
0
0
0
0
0
0
0
0
0
0
0
0
0
0
0
0
0
0
0
0
0
0
0
0
0
0
0
0
0
0
0
0
0
0
0
0
0
0
0
0
0
0
0
0
0
0
0
0
0
0
0
0
0
0
0
0
0
0
0
0
0
0
0
0
0
0
0
0
0
0
0
0
0
0
0
0
0
0
0
0
0
0
0
0
0
0
0
0
0
0
0
0
0
0
0
0
0
0
0
0
0
0
0
0
0
0
0
0
0
0
0
0
0
0
0
0
0
0
0
0
0
0
0
3.0138e-322
-9.18962e-321
1.4899e-319
-9.43863e-320
-3.78108e-320
-5.95349e-321
-4.83922e-319
1.14317e-317
-8.22154e-318
-6.47368e-318
6.53165e-319
1.53886e-318
1.58831e-318
-1.24094e-318
-2.51444e-318
1.70757e-317
-6.9588e-318
-5.12684e-318
-1.41134e-318
-4.35964e-320
6.03462e-319
-8.47786e-318
5.73023e-318
2.31183e-318
1.85457e-319
-3.76083e-320
-1.01199e-319
-2.86459e-320
-7.01573e-322
3.37546e-320
-1.76727e-320
-2.42142e-320
1.53358e-320
-1.90709e-321
0
0
0
0
0
0
0
0
0
0
0
0
0
0
0
0
0
0
0
0
0
0
0
0
0
0
0
0
0
0
0
0
0
0
0
0
0
0
0
0
0
0
0
0
0
0
0
-1.54148e-321
2.6057e-320
-4.66176e-319
5.89899e-318
-6.0529e-317
3.422e-316
-5.19948e-315
2.75273e-314
1.14207e-313
-4.44422e-312
3.01849e-311
-3.77821e-310
3.81266e-310
-1.9591e-309
-5.28496e-310
1.63523e-309
9.81089e-310
-5.25932e-310
-3.7645e-308
1.36114e-306
-1.63357e-305
2.28751e-304
-2.92221e-303
3.34103e-302
-1.09583e-301
6.5885e-302
1.99308e-302
-1.6092e-303
-3.81935e-303
-1.86421e-303
-1.03858e-303
9.30619e-304
1.38946e-303
-3.27209e-303
1.55271e-302
-6.97658e-303
-1.85171e-302
1.37528e-302
2.58687e-302
-1.15469e-302
-1.337e-302
-2.58165e-304
-1.35832e-303
-1.67402e-303
8.21399e-305
6.12331e-304
2.89083e-304
-5.6672e-305
-4.82213e-305
-1.04496e-305
1.91146e-305
1.18312e-305
3.72027e-306
3.32052e-308
-6.35752e-307
-5.06559e-307
-1.16256e-307
1.98524e-309
1.62333e-308
5.5755e-309
7.72431e-310
-1.70473e-309
-5.38695e-310
1.38254e-310
8.39387e-311
-1.18153e-311
-1.4578e-311
-2.58981e-312
3.86065e-313
2.79297e-313
2.58252e-314
1.78757e-314
-1.35099e-314
-2.24707e-314
0
0
0
0
0
0
0
0
0
0
0
0
6.96633e-322
-1.6655e-320
4.72327e-321
1.92523e-319
2.71321e-319
-4.19581e-318
1.05016e-316
-2.63731e-315
6.33864e-314
-1.32981e-312
2.44804e-311
-4.2902e-310
7.20301e-309
-1.15171e-307
2.1206e-306
-2.31998e-305
2.64609e-304
-4.44656e-303
3.65491e-302
-5.69077e-301
6.29877e-300
-5.81283e-299
3.00735e-298
3.64221e-297
-5.23587e-296
4.93254e-295
-2.99678e-294
1.31047e-294
2.36171e-294
-1.86531e-293
2.33573e-292
-1.27457e-292
-3.24722e-293
-6.64036e-292
9.21802e-291
-2.18372e-289
2.548e-288
-2.56129e-287
8.61272e-287
-2.11635e-287
-2.78913e-287
-1.23256e-287
-2.41282e-288
3.24821e-289
7.79667e-289
3.26236e-288
-4.99018e-288
8.95068e-289
-6.60986e-288
3.91946e-287
4.132e-287
-3.76179e-287
-2.83395e-287
-8.47183e-288
3.08778e-289
-3.73245e-288
2.70313e-288
1.56809e-288
3.803e-289
1.23835e-290
-1.01725e-289
1.74012e-290
2.14692e-290
1.31348e-290
4.3234e-291
3.31029e-292
-8.73372e-292
-6.76157e-292
-2.11388e-292
-2.42039e-293
2.53192e-293
1.08983e-293
1.57556e-294
6.34084e-295
-2.80937e-294
6.12191e-295
2.99732e-295
3.00401e-296
-3.72888e-296
-1.08403e-296
2.21115e-300
7.48075e-298
1.74638e-298
-1.17419e-299
-1.09901e-299
-1.12959e-299
-4.50029e-299
3.34708e-299
-1.97626e-322
1.41056e-320
-2.57799e-319
7.26788e-318
-1.02273e-316
2.75708e-315
-7.53468e-314
9.21832e-313
-2.34733e-311
3.06743e-310
-7.58687e-309
7.97401e-308
-1.87583e-306
4.5349e-305
-5.66188e-305
5.33139e-304
-3.34192e-304
-1.77204e-303
3.55951e-302
-7.4965e-301
1.55071e-299
3.00734e-298
-6.43484e-297
1.24529e-295
-2.3484e-294
4.30576e-293
-8.5042e-292
1.49744e-290
-2.55359e-289
4.22872e-288
-6.79138e-287
3.04291e-286
-4.13313e-285
6.11853e-284
-8.72233e-283
1.19945e-281
1.78476e-281
-3.13143e-280
3.44468e-279
2.19283e-279
-5.54373e-279
2.36069e-278
-2.96827e-277
3.34485e-276
-1.71511e-276
-2.07814e-277
-1.13237e-275
1.06809e-274
-1.06206e-273
7.46964e-273
-2.74116e-272
1.78632e-272
-3.44827e-271
4.13275e-271
7.36329e-272
-7.61374e-272
-5.52766e-272
-1.18967e-272
-4.92112e-273
-9.41605e-272
1.33408e-271
1.36427e-272
-2.95279e-272
-1.63517e-272
9.95625e-273
-3.45502e-272
1.98839e-272
4.89547e-273
1.5879e-273
-5.7808e-274
7.42256e-274
1.68513e-274
5.31095e-275
2.15112e-275
5.52587e-276
9.4064e-278
-5.69726e-277
-6.38699e-277
-2.81659e-277
-4.56453e-278
3.69019e-279
1.79009e-278
6.66048e-279
4.73906e-280
-3.43405e-280
-3.95992e-279
2.87727e-279
7.98822e-280
8.19324e-282
-4.13437e-281
-3.6491e-282
-5.68237e-281
3.82165e-281
1.59865e-281
2.25193e-282
-3.80929e-283
-2.31003e-283
-9.49155e-284
2.66503e-284
1.38259e-284
8.68617e-307
-2.08552e-305
4.78636e-304
-1.1583e-302
2.70763e-301
-6.0083e-300
1.24158e-298
-2.29639e-297
3.41243e-296
-8.50773e-295
1.24411e-293
-2.99027e-292
7.22182e-291
-1.14695e-289
1.36183e-288
-1.37273e-288
9.02258e-288
-2.06322e-286
5.59848e-287
4.42032e-285
-6.93469e-284
1.36484e-282
-2.6609e-281
3.4994e-280
-3.50284e-279
9.44865e-279
-1.52181e-277
-1.30836e-275
2.22232e-274
-3.46061e-273
8.46719e-272
-1.28907e-270
2.66562e-269
-3.24682e-268
2.53996e-267
-1.98895e-266
2.43384e-265
-9.79282e-265
4.24815e-264
5.66137e-264
-9.34744e-263
1.04903e-261
5.9801e-261
-3.84282e-261
-2.35499e-261
-8.90064e-262
2.01236e-261
-2.0926e-260
1.77776e-259
-1.14188e-258
2.81885e-258
6.23269e-257
-8.19057e-256
2.57546e-255
-7.26078e-256
-8.25988e-256
-3.16199e-256
-2.04954e-256
-3.58399e-258
2.72186e-256
4.36616e-257
-2.76538e-257
-9.54533e-257
-2.77629e-257
4.09159e-257
4.32123e-257
1.11654e-257
2.06479e-261
-2.37028e-258
-1.51778e-258
-3.2706e-259
-4.74094e-261
1.4036e-259
4.53583e-260
-5.57948e-261
9.35593e-262
6.35199e-262
1.60477e-262
-1.339e-262
-3.503e-263
9.54754e-264
6.07565e-264
-2.22658e-262
1.51095e-262
6.41581e-263
8.6733e-264
8.99046e-264
-1.12114e-263
-5.82352e-265
6.45419e-265
1.25071e-265
9.1273e-266
5.05017e-266
8.75084e-267
-4.3483e-267
-2.39039e-267
-3.03967e-268
2.22976e-268
1.11253e-268
-1.75621e-269
-9.42547e-293
1.32947e-290
-2.05269e-289
5.54859e-288
-1.51469e-286
4.0656e-285
-1.07287e-283
2.78272e-282
-7.09177e-281
9.99316e-280
-2.39536e-278
5.78136e-277
-6.35157e-276
1.41825e-274
-3.23128e-273
7.21244e-272
-7.29628e-271
4.98798e-271
2.70043e-271
-2.40546e-270
4.80314e-269
-9.33666e-268
1.7738e-266
-3.29243e-265
5.96793e-264
-1.0559e-262
1.82262e-261
-3.06782e-260
2.37596e-259
-3.68929e-258
5.86524e-257
-9.05758e-256
-6.76893e-255
1.06063e-253
-1.40384e-252
1.79396e-251
-2.19987e-250
5.98812e-250
-5.0396e-249
-4.9068e-248
6.2639e-247
-1.96217e-246
-7.69032e-246
8.76346e-245
-1.10798e-244
1.89049e-244
-7.45386e-244
-9.41209e-244
-8.77108e-244
1.06784e-243
3.42125e-243
-6.02514e-242
8.03661e-241
-1.79932e-240
-1.45889e-241
4.97845e-241
3.07427e-241
3.89724e-241
3.9755e-241
1.38228e-241
-4.16274e-241
-2.25248e-241
3.9402e-242
4.64797e-242
2.52725e-242
2.65602e-243
1.2884e-245
-2.46826e-243
-9.21311e-244
-1.93234e-244
1.12859e-244
9.53074e-245
-1.2605e-245
1.91949e-245
1.07982e-245
2.60837e-246
-1.77175e-248
-2.23013e-247
-6.36698e-248
7.4149e-251
2.98236e-249
2.59975e-248
-3.64291e-247
2.17771e-247
1.17674e-247
2.46034e-248
-1.22152e-248
-6.36771e-249
-1.54087e-249
2.3815e-250
2.09172e-250
3.83838e-251
-2.66134e-252
-7.48277e-252
-1.68831e-252
7.19838e-254
1.291e-253
2.85516e-254
-4.71686e-254
3.18357e-254
1.24222e-276
-2.01005e-275
4.09865e-274
-3.63455e-273
-1.07816e-271
6.94821e-270
-1.83391e-268
4.28835e-267
-8.73662e-266
2.13102e-264
-3.92596e-263
8.26085e-262
-1.69738e-260
2.87675e-259
-5.26172e-258
9.54316e-257
-1.63078e-255
2.1279e-254
-1.71916e-253
2.00795e-252
-2.9544e-251
3.98851e-250
-4.34559e-249
-3.1804e-248
2.48849e-248
4.05197e-247
-4.91738e-247
-2.99111e-245
1.059e-243
-1.50588e-242
1.92036e-241
-2.2924e-240
3.24052e-239
-1.51566e-238
1.89448e-237
6.77544e-237
-2.23327e-235
2.6281e-234
-1.08059e-233
-2.42976e-234
5.56393e-232
-2.86895e-231
3.71598e-231
3.91219e-230
-4.963e-230
8.78042e-230
-8.08441e-229
1.86881e-228
-1.32212e-226
6.24186e-226
-9.10668e-226
1.08591e-225
6.85991e-226
-8.08794e-226
-3.21044e-226
-2.37464e-226
-4.22013e-226
-5.07689e-227
2.89789e-226
2.55031e-226
4.2634e-227
-5.9326e-227
-2.81867e-227
-1.41522e-227
-3.89213e-228
-1.03544e-229
2.7837e-228
1.11432e-228
3.0694e-229
-1.58486e-229
-6.09032e-230
-2.02606e-233
-3.51582e-230
-1.19442e-230
3.73105e-231
5.81654e-231
2.35184e-232
-6.30191e-231
7.31271e-232
2.48706e-231
1.74738e-231
-7.44302e-232
-5.08875e-232
-9.37576e-233
5.7221e-235
1.10741e-233
1.26084e-233
1.77007e-234
-5.50621e-235
-2.16668e-235
1.30265e-236
-5.99879e-237
7.77233e-237
3.48123e-237
-6.04627e-238
-1.08365e-237
-2.59314e-238
7.89993e-239
8.39731e-239
1.00068e-239
-2.21461e-261
3.13441e-260
-8.37031e-259
2.24465e-257
-4.4442e-256
4.44784e-257
8.59663e-254
-2.2087e-252
5.42009e-251
-1.36631e-249
2.10712e-248
-4.80147e-247
1.0926e-245
-2.4363e-244
4.22545e-243
-8.95647e-242
1.41758e-240
-2.86974e-239
2.81749e-238
-2.0092e-237
3.60669e-236
-6.73755e-235
1.22661e-233
1.38511e-232
-8.2032e-233
-5.04524e-232
7.81452e-231
-1.2769e-229
-4.14723e-229
7.89562e-228
-1.15389e-226
1.64327e-225
-6.67745e-224
3.63353e-223
-2.40738e-222
2.90306e-221
3.27034e-220
-4.05675e-219
1.13032e-218
-9.52918e-218
-7.17955e-217
5.12943e-216
-1.42807e-215
6.95143e-215
2.72851e-215
-5.20773e-215
-4.17401e-214
-1.97332e-212
3.75631e-211
-2.91963e-211
1.39627e-211
-1.11441e-210
6.64167e-211
9.25131e-213
-4.93995e-211
-3.05417e-211
4.1978e-211
5.24477e-211
2.11937e-211
-3.15683e-212
-4.31151e-212
-3.74229e-212
-2.35265e-212
6.3307e-213
3.51354e-213
5.33305e-213
-2.24237e-214
7.80735e-214
7.6052e-214
2.01522e-214
3.25126e-215
-5.30173e-215
-7.51416e-216
-1.58934e-216
-9.75781e-217
-1.10836e-215
-8.18002e-216
7.78829e-216
8.54596e-216
1.70112e-216
-5.40421e-217
-2.23892e-218
1.56541e-218
-3.67292e-218
3.35263e-218
1.21727e-218
-9.55765e-220
1.19959e-219
1.49012e-220
-9.08423e-222
-4.26515e-221
2.08953e-221
1.06442e-221
-1.57413e-222
-1.73213e-222
1.55207e-223
1.65004e-223
7.11461e-224
-1.37516e-225
-5.79946e-225
-4.72686e-246
9.12637e-245
-1.60836e-243
3.31613e-242
-8.52062e-241
1.75918e-239
-3.35441e-238
3.19962e-237
-1.35965e-236
-2.54062e-234
9.36872e-233
-1.41231e-231
1.43728e-230
-2.46979e-229
6.71157e-228
-1.03171e-226
1.2473e-225
-2.20095e-224
7.4049e-223
-8.23352e-222
1.25678e-220
-1.91073e-219
4.01099e-218
-5.77416e-217
9.69512e-216
-1.02961e-214
6.75324e-214
-5.49161e-214
1.38396e-211
-1.27853e-211
-1.51937e-210
9.93554e-210
-1.22668e-208
-4.32202e-208
1.25917e-206
-1.5224e-205
7.16577e-205
-7.23926e-204
7.55473e-203
-3.64243e-202
-2.1632e-202
3.51881e-201
-9.19383e-201
6.51891e-200
2.60546e-200
-1.21912e-199
-2.10008e-198
3.90544e-197
-4.42344e-196
1.71385e-195
-2.37654e-195
-3.39333e-196
9.71529e-196
1.44006e-195
-2.8027e-196
-4.93342e-196
-2.4199e-196
-3.82401e-197
2.66935e-197
1.6161e-197
5.01298e-197
1.20326e-198
-1.86871e-197
-1.66726e-197
-8.70603e-198
6.18068e-198
-5.85942e-198
-1.08107e-198
-1.891e-200
2.1269e-199
1.32918e-199
-2.33034e-200
6.47105e-201
2.07748e-200
1.32385e-200
-3.69795e-200
5.32236e-200
-9.64077e-201
-1.10551e-200
-1.28816e-201
1.06712e-202
-2.95137e-202
-4.11639e-202
-1.56641e-202
1.33519e-203
2.94368e-203
7.32133e-204
1.18148e-204
-2.53233e-205
-2.78961e-206
-6.99571e-206
1.12994e-206
1.16298e-206
1.07529e-207
-1.79176e-207
-7.48705e-208
-8.49223e-209
2.59796e-209
1.57086e-209
1.64157e-210
-4.08176e-231
9.25054e-230
-1.92806e-228
4.95037e-227
-9.20855e-226
2.27348e-224
-5.57681e-223
1.3426e-221
-3.17152e-220
7.34837e-219
-1.66936e-217
3.71681e-216
1.21864e-215
-3.30683e-214
-8.64083e-213
1.88358e-211
-5.32832e-211
7.00687e-209
-1.38372e-207
5.28009e-207
-8.13563e-206
-1.45341e-204
2.71551e-203
-1.40359e-203
-1.2581e-200
2.08546e-199
-2.0923e-198
3.06168e-197
-4.45183e-196
4.57866e-196
-2.56502e-195
3.53198e-194
-4.47135e-193
-1.36917e-192
2.02329e-191
-2.28473e-190
2.4947e-189
-1.75852e-188
8.63699e-188
-7.75575e-187
-1.57322e-187
4.49114e-186
-1.68043e-185
1.12577e-184
-6.65591e-184
-8.52908e-185
4.53882e-183
-9.38625e-182
4.88234e-181
-1.90578e-180
1.97416e-180
1.26971e-180
-5.3572e-181
-6.23638e-181
-4.4195e-181
-5.58021e-182
5.09782e-183
-2.80068e-182
-1.00532e-181
-1.27183e-182
8.187e-182
-4.22462e-183
-4.64386e-182
-1.15173e-182
1.55663e-182
1.62935e-182
6.52324e-183
5.15948e-184
-1.06503e-183
-5.87133e-184
-1.2454e-184
6.40326e-185
3.59425e-185
5.74253e-186
-9.44556e-186
9.40129e-185
-9.67443e-185
1.60936e-186
7.05863e-186
3.92621e-187
-6.81441e-187
-5.21183e-187
-1.41261e-187
1.67962e-187
4.14074e-188
-2.52199e-189
3.2586e-189
-1.32774e-190
1.73871e-190
-2.15528e-190
-9.62827e-191
-1.64764e-191
9.6521e-192
1.99739e-192
3.92984e-194
-1.19223e-193
-4.38985e-194
-5.81023e-195
-9.42486e-196
1.35096e-195
5.14443e-216
-1.1416e-214
2.95126e-213
-7.61661e-212
1.69162e-210
-5.30483e-209
1.28568e-207
-3.03518e-206
9.35764e-205
-1.57282e-203
4.77019e-202
-1.05e-200
1.23301e-199
-3.49685e-198
5.40457e-197
-7.27634e-196
1.39691e-194
-1.65493e-193
4.61488e-192
-6.04132e-191
6.53395e-190
-1.1007e-188
9.95466e-188
-2.81531e-186
3.03322e-185
-2.53747e-184
3.67161e-183
-2.21132e-182
6.53715e-181
-5.23045e-180
2.58364e-179
1.06751e-178
-1.53669e-177
1.79366e-176
6.6932e-177
-1.88359e-175
1.90085e-174
-1.89296e-173
1.78844e-172
-1.59754e-171
4.37859e-171
-3.58638e-171
1.88543e-170
-1.26421e-169
6.39104e-169
4.18459e-169
-5.00228e-168
4.33366e-167
-3.19461e-166
1.85105e-165
-9.63665e-166
-1.38035e-165
-2.70096e-166
3.91332e-166
9.05272e-166
6.35253e-167
-4.85248e-166
-6.89754e-167
3.64824e-167
1.33397e-166
8.31926e-167
2.53009e-167
-1.47563e-167
-1.79208e-167
-8.36308e-168
-1.44503e-168
7.02964e-169
6.03149e-169
1.81744e-169
-1.69379e-170
1.11087e-169
-1.80098e-168
1.53225e-168
3.28262e-169
1.29783e-169
-2.13218e-169
-1.17838e-169
-5.9273e-171
-1.03096e-171
4.662e-171
8.99549e-172
-3.12602e-172
-4.14959e-172
-1.08507e-172
1.28363e-173
1.93858e-173
5.3153e-174
-8.51689e-175
-4.85433e-175
-1.12357e-175
1.79473e-176
1.59026e-176
4.23785e-177
-4.8561e-178
-2.4659e-178
-4.90732e-180
2.42105e-179
-2.032e-180
8.44193e-180
1.13988e-180
2.74408e-201
-5.91695e-200
-2.64141e-199
4.76074e-197
-2.6472e-195
8.79719e-194
-2.09447e-192
5.24476e-191
-1.28304e-189
2.95957e-188
-5.91428e-187
1.13499e-185
-2.24368e-184
4.09794e-183
-7.63138e-182
1.38447e-180
-2.27738e-179
3.61463e-178
-5.54686e-177
8.98985e-176
-1.41475e-174
1.92743e-173
-2.80558e-172
3.4449e-171
-4.59501e-170
5.867e-169
-7.04382e-168
8.16666e-167
-8.78788e-166
9.0973e-165
-9.25508e-164
8.61103e-163
-8.03156e-162
4.70615e-161
-3.52102e-160
2.24905e-159
-1.59484e-158
9.85674e-158
-4.21508e-157
2.03514e-156
-6.13065e-156
2.87294e-155
-1.21538e-154
2.62433e-154
-5.20415e-154
-7.89604e-154
2.40368e-152
-1.84198e-151
7.39359e-151
-1.45644e-150
-6.31337e-151
3.12301e-150
2.40816e-151
-1.08492e-150
-8.39569e-151
-4.15387e-151
1.10336e-151
2.02136e-151
1.42642e-151
1.22705e-151
3.26398e-152
-4.84344e-152
-5.28641e-152
-5.52461e-152
2.93829e-153
1.87675e-152
2.31113e-152
8.4955e-153
-1.67884e-152
-1.06244e-152
8.38455e-154
3.74335e-153
2.08756e-153
-6.75225e-155
-4.58773e-154
-2.01846e-154
-9.93068e-156
2.69453e-155
1.31216e-155
1.09583e-156
-1.62746e-156
-7.03247e-157
-4.42385e-158
5.31358e-158
2.27645e-158
1.75183e-159
-1.66991e-159
-7.11121e-160
-8.63472e-161
2.80517e-161
2.78044e-161
-3.2575e-162
-1.65634e-162
7.12913e-163
7.61671e-163
1.84422e-163
-5.10219e-164
-4.70851e-164
-6.35822e-165
3.175e-165
-3.82064e-185
1.97717e-184
-4.42948e-183
1.08419e-181
-2.60147e-180
2.06582e-179
-4.45357e-178
1.00837e-176
-2.23532e-175
-6.08745e-174
1.38096e-172
-2.63928e-171
5.37063e-170
-1.16917e-168
2.28822e-167
-4.00042e-166
6.74668e-165
-1.09835e-163
1.72039e-162
-2.95129e-161
4.95457e-160
-7.07827e-159
1.11679e-157
-1.47461e-156
2.18989e-155
-3.17689e-154
3.70887e-153
-4.99134e-152
5.21195e-151
-4.82121e-150
5.78489e-149
-4.3662e-148
4.78226e-147
-3.01453e-146
2.99727e-145
-1.25623e-144
1.093e-143
-9.74156e-143
2.97909e-142
-2.1298e-141
2.91812e-141
-1.5403e-140
9.69411e-140
-1.13416e-139
1.2694e-139
2.23822e-139
-8.6869e-138
4.79039e-137
-2.2386e-136
2.55692e-136
5.62982e-136
-1.00588e-135
-2.73466e-136
1.32228e-136
2.38183e-137
2.57759e-136
1.63918e-136
7.98824e-137
8.38238e-137
-1.74847e-137
-5.10496e-137
-2.97508e-137
-4.34267e-137
3.09559e-137
1.83147e-137
1.86333e-137
-1.23799e-137
-1.63655e-137
-3.21776e-138
5.75581e-138
3.53018e-138
7.4624e-139
-3.68764e-139
-2.98899e-139
-7.16779e-140
1.81685e-140
1.76838e-140
4.30797e-141
-8.23323e-142
-7.60822e-142
-1.7794e-142
2.98954e-143
2.78513e-143
6.15109e-144
-4.70316e-145
-6.55647e-145
-1.77199e-145
-5.34901e-147
1.31199e-146
6.7425e-147
-1.97398e-147
-1.91359e-147
2.34806e-147
1.09443e-147
6.40781e-149
-8.77654e-149
-2.87265e-149
-1.13641e-151
2.1199e-150
3.30422e-151
-6.94475e-170
1.44375e-168
1.5478e-167
-4.11326e-166
-9.13816e-165
2.25669e-163
-5.10679e-162
1.13332e-160
-2.46361e-159
-6.8072e-160
5.41723e-158
-1.09393e-156
2.1828e-155
-4.25639e-154
8.10682e-153
-1.50727e-151
2.734e-150
-4.83499e-149
8.33082e-148
-1.39754e-146
2.28083e-145
-3.61848e-144
5.57558e-143
-8.33653e-142
1.20833e-140
-1.69602e-139
2.30264e-138
-3.02021e-137
3.82191e-136
-4.65927e-135
5.4632e-134
-4.5767e-133
4.85182e-132
-5.00917e-131
3.82705e-130
-2.64086e-129
1.43134e-128
-1.16148e-127
4.18952e-127
-2.88071e-126
3.30511e-126
-1.54927e-125
8.69115e-125
-4.77396e-125
1.11534e-124
3.4932e-124
-8.33587e-123
-2.30092e-122
1.22109e-121
-3.21002e-122
-6.70781e-121
4.74655e-121
4.91568e-121
8.34491e-122
-1.95589e-121
-2.04124e-121
-7.97184e-122
-1.70768e-121
1.47097e-121
1.05616e-121
5.77854e-122
-6.83793e-122
-8.11068e-122
-2.11132e-122
3.5055e-122
3.69321e-122
1.27464e-122
-4.12845e-123
-6.56564e-123
-2.18625e-123
1.65734e-125
3.08771e-124
1.10137e-124
-4.63356e-126
-1.81123e-125
-6.49593e-126
-1.43981e-127
7.36239e-127
2.80615e-127
1.79186e-128
-2.26795e-128
-9.24736e-129
-9.34237e-130
4.99967e-130
2.40255e-130
4.11558e-131
-4.25699e-132
-5.09216e-132
-1.87108e-132
3.44712e-134
1.405e-131
-4.73812e-130
3.83866e-130
1.85663e-130
-7.5885e-131
-3.39703e-131
-6.03262e-132
4.92317e-132
1.37031e-132
-1.19218e-133
-6.7323e-154
1.14351e-152
-1.82907e-151
4.23714e-150
-8.27585e-149
1.72088e-147
-3.50975e-146
6.31289e-145
-1.19606e-143
2.19455e-142
-4.44814e-141
6.59599e-140
-8.09107e-139
1.50427e-137
-1.23623e-136
2.12476e-135
-2.32201e-134
3.88869e-133
-6.50668e-132
8.47295e-131
-9.91426e-130
9.87733e-129
-1.43723e-127
2.07447e-126
-1.35913e-125
-3.41904e-125
2.14987e-123
-2.80756e-122
3.41526e-121
-3.44919e-120
3.54331e-119
-3.47574e-118
2.88929e-117
-2.4758e-116
1.99168e-115
-1.96093e-114
1.64971e-113
-1.11404e-112
6.78405e-112
-3.6687e-111
1.69423e-110
-6.1612e-110
7.20183e-110
-2.24219e-109
-3.05759e-109
4.26235e-108
-2.09941e-107
7.04557e-107
-2.34093e-107
-1.05117e-106
6.43011e-106
-1.05163e-107
-8.89338e-106
-1.52156e-106
4.48729e-106
4.47302e-106
-3.14376e-107
-2.98087e-106
-1.75852e-106
3.65883e-107
9.94147e-107
3.63692e-107
-2.8541e-107
-3.9702e-107
-1.84794e-107
-3.97846e-109
5.05922e-108
3.14454e-108
5.85882e-109
8.3477e-110
1.2967e-109
1.00048e-110
-9.92461e-109
-1.213e-109
4.23247e-109
2.58386e-109
-1.07474e-109
-1.33874e-109
2.24873e-110
2.70386e-110
1.76047e-110
1.48209e-112
-5.82112e-111
-1.61006e-111
8.22174e-112
6.76252e-112
1.63874e-112
-7.56777e-113
-4.69006e-113
9.42267e-115
6.22559e-114
2.11974e-114
-2.17915e-115
-2.81872e-115
-6.66191e-116
1.25858e-116
1.53266e-116
1.56647e-117
-1.13682e-117
-3.60671e-118
5.08123e-139
-1.00884e-137
1.50213e-136
-3.3992e-135
3.17231e-134
-6.68717e-133
1.45317e-131
-3.08978e-130
6.42919e-129
-2.51392e-127
5.09092e-126
-5.15204e-125
9.4362e-124
-1.7497e-122
1.87704e-121
-3.21588e-120
1.89611e-119
-2.91779e-118
4.75394e-117
-7.51354e-116
1.15317e-114
-1.71709e-113
2.47803e-112
-3.4624e-111
4.67847e-110
-3.54063e-109
2.68496e-108
3.61235e-108
-6.21699e-107
6.87792e-106
-7.40653e-105
7.62368e-104
-7.48475e-103
6.98894e-102
4.68098e-101
4.67394e-100
-4.07138e-99
2.95713e-98
-2.01307e-97
1.25544e-96
-7.06093e-96
2.4538e-95
-3.56327e-95
9.28253e-95
2.07118e-94
-1.37603e-93
8.63843e-93
-2.58006e-92
6.17112e-92
1.63313e-91
-5.1539e-91
1.56734e-91
6.63571e-91
2.46763e-91
-1.65753e-91
-3.18133e-91
-2.22451e-91
-6.65626e-92
1.55762e-92
1.91243e-92
-1.89247e-93
-1.15996e-92
-7.95522e-93
-1.58149e-93
1.26043e-93
3.80167e-94
2.07521e-92
-1.12974e-92
-5.66649e-93
1.13441e-93
-3.70114e-93
-1.73784e-93
1.12087e-93
5.94896e-94
5.65444e-95
-1.94431e-94
-1.73587e-96
5.14942e-95
2.64965e-95
1.70925e-95
-8.68224e-96
-8.70899e-96
2.31021e-97
1.42545e-96
6.21157e-97
-2.34832e-98
-1.53978e-97
-4.87238e-98
4.39442e-99
6.6176e-99
1.30641e-99
-4.78591e-100
-2.78869e-100
-3.80956e-101
2.83787e-101
1.07505e-101
2.39761e-103
-8.24545e-103
-1.95296e-103
3.33216e-104
-1.0114e-123
1.96082e-122
-5.53756e-121
1.01773e-119
-1.96303e-118
4.23979e-117
-6.50758e-116
1.33431e-114
-2.71424e-113
6.28069e-112
-1.06787e-110
1.72576e-109
-2.15275e-108
2.89467e-107
-3.55112e-106
8.16519e-105
-1.37841e-103
1.78232e-102
-1.45594e-101
2.14349e-100
-3.18959e-99
3.50429e-98
-3.67596e-97
2.33244e-96
-2.88822e-95
3.64194e-94
-3.97269e-93
4.12743e-92
-3.64407e-91
4.34511e-90
-4.48526e-89
4.38654e-88
-3.14917e-87
2.44706e-86
-2.03122e-85
1.42644e-84
-9.33974e-84
4.50718e-83
-2.3965e-82
7.03409e-82
-2.32075e-81
1.44754e-80
-3.33696e-80
2.58301e-80
2.24302e-79
-1.17249e-78
2.86056e-78
7.23331e-78
-2.29051e-77
-1.06248e-76
2.25679e-76
-8.42424e-78
-1.98202e-76
5.15952e-77
-2.1602e-76
-5.1287e-76
-4.08584e-76
2.17391e-76
6.97162e-76
6.32544e-76
1.67314e-76
-2.357e-76
-2.87748e-76
-1.86085e-76
3.38268e-77
1.00974e-76
5.31217e-77
6.18697e-78
-6.3934e-78
-8.88659e-78
1.25557e-78
2.83685e-78
3.05903e-79
-1.27003e-78
-2.94807e-79
8.33639e-80
1.8032e-79
9.16239e-80
-2.77496e-80
-3.42158e-80
-1.0398e-80
1.98369e-81
2.64637e-81
6.62324e-82
-2.13316e-82
-1.8485e-82
-3.34805e-83
1.51499e-83
9.49033e-84
1.105e-84
-7.85878e-85
-3.72749e-85
-2.38342e-86
3.53227e-86
1.09143e-86
-6.07995e-88
-1.29568e-87
-2.39088e-88
7.03721e-89
2.86165e-89
-1.18402e-108
2.2896e-107
-5.45191e-106
1.22968e-104
-2.8009e-103
5.63226e-102
-1.13223e-100
2.15382e-99
-3.98136e-98
7.1508e-97
-1.29886e-95
2.30186e-94
-4.14733e-93
6.67573e-92
-9.80255e-91
1.44698e-89
-2.0485e-88
2.98395e-87
-4.20666e-86
4.68651e-85
-4.90853e-84
5.14034e-83
-5.75791e-82
6.03856e-81
-2.28587e-80
1.98926e-79
-2.15703e-78
2.14117e-77
-2.18631e-76
2.04375e-75
-1.70701e-74
1.40056e-73
-1.30522e-72
1.02801e-71
-7.53555e-71
4.78265e-70
-2.74205e-69
1.71609e-68
-9.8644e-68
5.06106e-67
-2.03138e-66
6.45491e-66
-1.00606e-65
-1.52142e-65
2.85079e-64
-1.26989e-63
3.98344e-63
-7.4058e-63
-3.48243e-63
7.02019e-62
-1.38623e-61
-9.63445e-62
7.59259e-62
2.95948e-61
2.80267e-61
-5.83591e-62
-4.2629e-61
-3.2759e-61
-6.15665e-62
2.12373e-61
2.45569e-61
8.79959e-62
-3.48291e-62
-6.80031e-62
-4.84654e-62
1.0847e-62
4.80324e-63
-5.56153e-63
-4.73722e-63
-9.90802e-63
-2.41802e-63
4.86255e-63
2.77356e-63
2.27437e-64
-7.72356e-64
-4.81635e-64
-6.47449e-65
8.21906e-65
4.69709e-65
6.75476e-66
-5.16472e-66
-2.84245e-66
-3.47245e-67
2.76616e-67
1.41546e-67
1.34301e-68
-1.29744e-68
-6.13095e-69
-4.24695e-70
5.59072e-70
2.11327e-70
7.54301e-73
-2.25512e-71
-5.72081e-72
8.9411e-73
7.51065e-73
8.70414e-74
-5.52901e-74
-2.02627e-74
3.12581e-75
-2.24564e-94
4.14494e-93
-9.17249e-92
1.98881e-90
7.31961e-89
-1.60681e-87
3.26145e-86
-6.47665e-85
1.25665e-83
-2.38099e-82
4.40274e-81
-7.94036e-80
1.39579e-78
-2.38982e-77
3.98244e-76
-6.4541e-75
1.01639e-73
-1.55397e-72
2.30444e-71
-2.60232e-70
3.57419e-69
-4.80794e-68
6.24211e-67
-7.81416e-66
7.14295e-66
-3.30083e-65
3.9516e-64
-4.22265e-63
4.32134e-62
-4.21883e-61
3.91885e-60
-3.45307e-59
2.87616e-58
-2.25525e-57
1.65654e-56
-1.1329e-55
7.15776e-55
-4.13445e-54
2.1508e-53
-9.84044e-53
3.79003e-52
-1.10548e-51
1.48814e-51
7.69263e-51
-7.20184e-50
3.26622e-49
-9.08246e-49
3.53405e-49
1.86245e-48
-1.44342e-47
1.62459e-47
2.62665e-47
1.20926e-48
1.42303e-47
-6.05066e-47
-4.09367e-47
2.73028e-47
7.14925e-47
5.62292e-47
7.50571e-48
-4.08947e-47
2.11009e-48
-4.63276e-47
5.63631e-47
-1.38056e-47
-3.05492e-47
-2.37493e-47
-9.41062e-48
-1.48246e-47
8.23007e-48
6.15824e-48
1.49307e-48
-4.18778e-49
-4.48259e-49
-1.61231e-49
1.49972e-50
3.51211e-50
1.3532e-50
-6.40891e-52
-2.4364e-51
-4.46726e-52
-2.05106e-52
-9.6858e-55
2.23357e-53
5.7515e-54
-1.34256e-54
-1.21799e-54
-2.45252e-55
5.90791e-56
4.45355e-56
7.19525e-57
-5.62566e-57
8.37701e-58
7.1671e-58
1.319e-58
-2.20902e-59
-1.85488e-59
1.92993e-60
4.20406e-60
-7.19385e-61
1.01195e-77
-1.82038e-76
2.50138e-75
-5.19774e-74
4.70239e-73
-9.0942e-72
1.80655e-70
-3.50376e-69
6.63586e-68
2.2771e-67
-3.09118e-65
5.60997e-64
-9.59361e-63
4.33571e-62
-6.2233e-61
9.82283e-60
-1.50065e-58
2.22367e-57
-3.19275e-56
4.43701e-55
-5.96127e-54
2.52039e-52
-3.25837e-51
3.91979e-50
-4.53875e-49
5.04264e-48
-5.36514e-47
5.4545e-46
-5.2858e-45
4.86904e-44
-4.24988e-43
3.50205e-42
-1.71527e-41
1.20695e-40
-8.1621e-40
5.06828e-39
-1.51065e-38
7.50346e-38
-7.52614e-38
2.96702e-37
-1.02944e-36
2.34115e-36
-1.70656e-36
1.49735e-36
2.46603e-35
-2.9065e-34
2.56746e-34
4.39795e-35
-1.05792e-33
6.4459e-33