/*--------------------------------*- C++ -*----------------------------------*\
  =========                 |
  \\      /  F ield         | OpenFOAM: The Open Source CFD Toolbox
   \\    /   O peration     | Website:  https://openfoam.org
    \\  /    A nd           | Version:  13
     \\/     M anipulation  |
\*---------------------------------------------------------------------------*/
FoamFile
{
    format      ascii;
    class       volScalarField;
    location    "5.8";
    object      T;
}
// * * * * * * * * * * * * * * * * * * * * * * * * * * * * * * * * * * * * * //

dimensions      [0 0 0 1 0 0 0];

internalField   nonuniform List<scalar> 
10000
(
1.55274e-60
-8.67885e-61
8.55762e-60
-3.70942e-59
1.6577e-58
-6.9996e-58
2.80511e-57
-1.05778e-56
3.71275e-56
-1.19206e-55
3.39259e-55
-7.97373e-55
1.20778e-54
1.13292e-54
-1.86312e-53
9.30618e-53
-3.30278e-52
8.9927e-52
-1.7354e-51
1.21028e-51
7.23996e-51
-3.86088e-50
1.03856e-49
-1.34264e-49
-2.0593e-49
1.62013e-48
-4.12426e-48
2.8142e-48
1.78123e-47
-7.04223e-47
8.55474e-47
2.10791e-46
-1.06064e-45
1.2446e-45
3.62082e-45
-1.51129e-44
8.34357e-45
7.36103e-44
-1.74011e-43
-1.52551e-43
1.21457e-42
-7.10615e-43
-5.99779e-42
1.01266e-41
2.40071e-41
-7.36023e-41
-8.35958e-41
4.35855e-40
2.84937e-40
-2.35611e-39
-1.24508e-39
1.20937e-38
8.29248e-39
-5.85684e-38
-6.60097e-38
2.52664e-37
4.93364e-37
-8.20513e-37
-3.11575e-36
5.59254e-37
1.51303e-35
1.72457e-35
-4.36214e-35
-1.44524e-34
-5.11231e-35
5.30375e-34
1.22986e-33
2.93717e-34
-4.36268e-33
-1.09721e-32
-8.96313e-33
1.92054e-32
8.15093e-32
1.47421e-31
1.26224e-31
-1.18312e-31
-7.02373e-31
-1.62882e-30
-2.72484e-30
-3.66866e-30
-4.11542e-30
-3.86362e-30
-2.96599e-30
-1.71443e-30
-5.04129e-31
3.43951e-31
7.04105e-31
6.54992e-31
3.92968e-31
1.1525e-31
-6.10135e-32
-1.15023e-31
-8.84821e-32
-3.73722e-32
9.29621e-34
1.56826e-32
1.36489e-32
6.01923e-33
5.49672e-35
-1.90943e-33
-1.74771e-60
1.01457e-60
-9.82655e-60
4.29662e-59
-1.93367e-58
8.23731e-58
-3.33663e-57
1.2754e-56
-4.55837e-56
1.50207e-55
-4.45637e-55
1.13516e-54
-2.18305e-54
1.35046e-54
1.34034e-53
-8.56308e-53
3.32146e-52
-9.5784e-52
1.97312e-51
-1.80232e-51
-6.44956e-51
3.946e-50
-1.12218e-49
1.58821e-49
1.74948e-49
-1.67474e-48
4.49648e-48
-3.60796e-48
-1.78295e-47
7.54258e-47
-9.87466e-47
-2.08232e-46
1.13507e-45
-1.42811e-45
-3.67837e-45
1.63213e-44
-1.02456e-44
-7.74205e-44
1.91126e-43
1.49622e-43
-1.30856e-42
8.38907e-43
6.39059e-42
-1.12034e-41
-2.53256e-41
8.03569e-41
8.72046e-41
-4.73526e-40
-2.94381e-40
2.55566e-39
1.29542e-39
-1.31166e-38
-8.82455e-39
6.35248e-38
7.1302e-38
-2.73665e-37
-5.35864e-37
8.82756e-37
3.38398e-36
-5.35764e-37
-1.63465e-35
-1.91017e-35
4.62134e-35
1.57171e-34
6.27631e-35
-5.62204e-34
-1.3449e-33
-4.13903e-34
4.55145e-33
1.19089e-32
1.06274e-32
-1.82799e-32
-8.50051e-32
-1.60862e-31
-1.54969e-31
7.20073e-32
6.41399e-31
1.56062e-30
2.65793e-30
3.60833e-30
4.06133e-30
3.81122e-30
2.91083e-30
1.65629e-30
4.48196e-31
-3.89678e-31
-7.33263e-31
-6.6623e-31
-3.90321e-31
-1.05716e-31
7.08536e-32
1.21346e-31
9.06234e-32
3.67048e-32
-2.54897e-33
-1.69803e-32
-1.42119e-32
-6.0219e-33
1.67197e-34
2.05802e-33
1.33368e-59
-7.68625e-60
7.46936e-59
-3.26029e-58
1.46516e-57
-6.23014e-57
2.51801e-56
-9.59777e-56
3.41743e-55
-1.12009e-54
3.29517e-54
-8.26313e-54
1.5251e-53
-5.72616e-54
-1.15802e-52
6.88707e-52
-2.61133e-51
7.4275e-51
-1.50758e-50
1.30542e-50
5.22797e-50
-3.09017e-49
8.67579e-49
-1.20405e-48
-1.43499e-48
1.30805e-47
-3.47023e-47
2.69351e-47
1.40291e-46
-5.84476e-46
7.53163e-46
1.64323e-45
-8.79815e-45
1.09096e-44
2.88389e-44
-1.26276e-43
7.72702e-44
6.02379e-43
-1.47376e-42
-1.18177e-42
1.01307e-41
-6.38034e-42
-4.95881e-41
8.6293e-41
1.96899e-40
-6.20601e-40
-6.79377e-40
3.66077e-39
2.29678e-39
-1.97646e-38
-1.00875e-38
1.01449e-37
6.84165e-38
-4.91388e-37
-5.5142e-37
2.11801e-36
4.14137e-36
-6.84521e-36
-2.61627e-35
4.29185e-36
1.26568e-34
1.46988e-34
-3.59553e-34
-1.21503e-33
-4.72192e-34
4.37266e-33
1.03848e-32
3.03404e-33
-3.55275e-32
-9.21201e-32
-8.06605e-32
1.45803e-31
6.63498e-31
1.24301e-30
1.16856e-30
-6.51935e-31
-5.16497e-30
-1.24206e-29
-2.10636e-29
-2.85395e-29
-3.20971e-29
-3.01234e-29
-2.30346e-29
-1.31559e-29
-3.63357e-30
2.98655e-30
5.72398e-30
5.22869e-30
3.08028e-30
8.50491e-31
-5.40185e-31
-9.4451e-31
-7.10134e-31
-2.90457e-31
1.70953e-32
1.31406e-31
1.10951e-31
4.74496e-32
-9.05653e-34
-1.59427e-32
-6.76471e-59
3.94024e-59
-3.80977e-58
1.6668e-57
-7.50412e-57
3.19807e-56
-1.29599e-55
4.95615e-55
-1.77229e-54
5.84356e-54
-1.73499e-53
4.42445e-53
-8.52871e-53
5.37629e-53
5.18145e-52
-3.32523e-51
1.292e-50
-3.73081e-50
7.69876e-50
-7.07817e-50
-2.4979e-49
1.53554e-48
-4.3757e-48
6.214e-48
6.74863e-48
-6.52014e-47
1.75491e-46
-1.41831e-46
-6.92951e-46
2.94218e-45
-3.86772e-45
-8.08383e-45
4.42845e-44
-5.59614e-44
-1.43016e-43
6.37288e-43
-4.03565e-43
-3.01738e-42
7.47434e-42
5.79547e-42
-5.11028e-41
3.30218e-41
2.49332e-40
-4.3873e-40
-9.8699e-40
3.14347e-39
3.39296e-39
-1.85169e-38
-1.14294e-38
9.9932e-38
5.02754e-38
-5.12967e-37
-3.43401e-37
2.4851e-36
2.78172e-36
-1.07104e-35
-2.09366e-35
3.45718e-35
1.32324e-34
-2.11363e-35
-6.39499e-34
-7.46902e-34
1.80819e-33
6.14896e-33
2.45886e-33
-2.19878e-32
-5.26342e-32
-1.63035e-32
1.77877e-31
4.66058e-31
4.17332e-31
-7.11174e-31
-3.32109e-30
-6.29834e-30
-6.10144e-30
2.70458e-30
2.48575e-29
6.06551e-29
1.03409e-28
1.40449e-28
1.5811e-28
1.4837e-28
1.13286e-28
6.44035e-29
1.73415e-29
-1.52805e-29
-2.86318e-29
-2.59824e-29
-1.52033e-29
-4.09971e-30
2.78103e-30
4.74144e-30
3.53585e-30
1.42911e-30
-1.02509e-31
-6.64304e-31
-5.54998e-31
-2.34724e-31
6.93286e-33
8.04984e-32
3.4093e-58
-2.00475e-58
1.9296e-57
-8.45929e-57
3.81434e-56
-1.62864e-55
6.61447e-55
-2.53632e-54
9.10096e-54
-3.01491e-53
9.01524e-53
-2.32813e-52
4.62797e-52
-3.71953e-52
-2.33484e-51
1.61097e-50
-6.39358e-50
1.86992e-49
-3.91178e-49
3.76732e-49
1.19799e-48
-7.6269e-48
2.20117e-47
-3.18621e-47
-3.1863e-47
3.24728e-46
-8.84954e-46
7.39447e-46
3.42335e-45
-1.47798e-44
1.97636e-44
3.9786e-44
-2.22457e-43
2.85753e-43
7.08957e-43
-3.20904e-42
2.09275e-42
1.50931e-41
-3.78036e-41
-2.84254e-41
2.57241e-40
-1.70037e-40
-1.25143e-39
2.22438e-39
4.93974e-39
-1.58848e-38
-1.69208e-38
9.34572e-38
5.67888e-38
-5.04194e-37
-2.5008e-37
2.58837e-36
1.71958e-36
-1.25426e-35
-1.39983e-35
5.40604e-35
1.05592e-34
-1.7437e-34
-6.67799e-34
1.04723e-34
3.2253e-33
3.78318e-33
-9.08613e-33
-3.10519e-32
-1.26991e-32
1.10462e-31
2.66149e-31
8.63111e-32
-8.90288e-31
-2.35329e-30
-2.14667e-30
3.47788e-30
1.66169e-29
3.18462e-29
3.16288e-29
-1.10873e-29
-1.20003e-28
-2.96814e-28
-5.08471e-28
-6.92112e-28
-7.79826e-28
-7.31703e-28
-5.57932e-28
-3.15862e-28
-8.3056e-29
7.78913e-29
1.43152e-28
1.29156e-28
7.51209e-29
1.98241e-29
-1.42486e-29
-2.378e-29
-1.76078e-29
-7.042e-30
5.86375e-31
3.35186e-30
2.77503e-30
1.16225e-30
-4.50731e-32
-4.05752e-31
-1.64674e-57
9.78672e-58
-9.3722e-57
4.11792e-56
-1.8599e-55
7.95749e-55
-3.23938e-54
1.24566e-53
-4.48577e-53
1.49321e-52
-4.4971e-52
1.17582e-51
-2.40593e-51
2.31319e-51
9.88516e-51
-7.46229e-50
3.03309e-49
-8.99502e-49
1.90932e-48
-1.92662e-48
-5.4816e-48
3.63292e-47
-1.06319e-46
1.57058e-46
1.42967e-46
-1.55144e-45
4.28628e-45
-3.70929e-45
-1.6207e-44
7.12916e-44
-9.71131e-44
-1.8753e-43
1.07307e-42
-1.40326e-42
-3.36911e-42
1.55216e-41
-1.04484e-41
-7.24622e-41
1.8376e-40
1.33396e-40
-1.24386e-39
8.42958e-40
6.03134e-39
-1.08432e-38
-2.37294e-38
7.715e-38
8.09433e-38
-4.53294e-37
-2.70438e-37
2.44457e-36
1.19222e-36
-1.25515e-35
-8.26179e-36
6.08416e-35
6.76478e-35
-2.62284e-34
-5.11654e-34
8.45488e-34
3.2387e-33
-4.99335e-34
-1.56338e-32
-1.84165e-32
4.38767e-32
1.50716e-31
6.30678e-32
-5.3323e-31
-1.29366e-30
-4.3951e-31
4.28009e-30
1.14216e-29
1.06248e-29
-1.62881e-29
-7.98529e-29
-1.54802e-28
-1.57842e-28
4.02569e-29
5.53349e-28
1.39068e-27
2.39566e-27
3.26904e-27
3.68702e-27
3.45906e-27
2.63353e-27
1.48376e-27
3.79331e-28
-3.81907e-28
-6.87282e-28
-6.16094e-28
-3.55918e-28
-9.15974e-29
7.02376e-29
1.14563e-28
8.41625e-29
3.32619e-29
-3.20704e-30
-1.62546e-29
-1.33244e-29
-5.52026e-30
2.71529e-31
1.96548e-30
7.62204e-57
-4.5837e-57
4.36485e-56
-1.92249e-55
8.69862e-55
-3.72966e-54
1.52202e-53
-5.86985e-53
2.12151e-52
-7.0962e-52
2.15225e-51
-5.69446e-51
1.19643e-50
-1.31775e-50
-3.92374e-50
3.30992e-49
-1.38092e-48
4.15608e-48
-8.95608e-48
9.45922e-48
2.39578e-47
-1.66124e-46
4.93465e-46
-7.44507e-46
-6.09797e-46
7.11758e-45
-1.99559e-44
1.79027e-44
7.36055e-44
-3.30489e-43
4.59127e-43
8.4738e-43
-4.97499e-42
6.63147e-42
1.53638e-41
-7.21783e-41
5.02429e-41
3.34225e-40
-8.59212e-40
-5.99417e-40
5.78283e-39
-4.02597e-39
-2.79384e-38
5.08658e-38
1.09511e-37
-3.60476e-37
-3.71731e-37
2.11487e-36
1.23524e-36
-1.14009e-35
-5.45079e-36
5.85485e-35
3.81129e-35
-2.83931e-34
-3.14199e-34
1.22442e-33
2.38409e-33
-3.94567e-33
-1.51087e-32
2.29786e-33
7.29064e-32
8.6229e-32
-2.03861e-31
-7.03779e-31
-3.01225e-31
2.47623e-30
6.05017e-30
2.15168e-30
-1.97893e-29
-5.33385e-29
-5.06246e-29
7.3165e-29
3.69006e-28
7.24132e-28
7.58585e-28
-1.20869e-28
-2.44006e-27
-6.24717e-27
-1.08298e-26
-1.48196e-26
-1.67331e-26
-1.56963e-26
-1.19297e-26
-6.68494e-27
-1.6537e-27
1.80253e-27
3.17233e-27
2.8238e-27
1.61916e-27
4.0493e-28
-3.33327e-28
-5.30767e-28
-3.86618e-28
-1.50807e-28
1.67536e-29
7.58357e-29
6.1511e-29
2.51843e-29
-1.52715e-30
-9.15925e-30
-3.36719e-56
2.05234e-56
-1.94186e-55
8.57609e-55
-3.88796e-54
1.67089e-53
-6.8365e-53
2.64468e-52
-9.59458e-52
3.22507e-51
-9.85021e-51
2.6363e-50
-5.67657e-50
6.96705e-50
1.43922e-49
-1.40018e-48
6.01292e-48
-1.83844e-47
4.02481e-47
-4.44689e-47
-9.95259e-47
7.26777e-46
-2.19392e-45
3.38405e-45
2.45513e-45
-3.12511e-44
8.90353e-44
-8.29151e-44
-3.1953e-43
1.46784e-42
-2.08264e-42
-3.65675e-42
2.21001e-41
-3.00749e-41
-6.69944e-41
3.21722e-40
-2.32111e-40
-1.4763e-39
3.85331e-39
2.56818e-39
-2.57719e-38
1.84777e-38
1.24004e-37
-2.28992e-37
-4.83983e-37
1.61574e-36
1.63337e-36
-9.46406e-36
-5.39137e-36
5.09983e-35
2.38098e-35
-2.61969e-34
-1.68247e-34
1.27115e-33
1.39825e-33
-5.48464e-33
-1.0651e-32
1.76741e-32
6.76036e-32
-1.01886e-32
-3.26177e-31
-3.87204e-31
9.08815e-31
3.15279e-30
1.37973e-30
-1.10311e-29
-2.71488e-29
-1.01014e-29
8.77433e-29
2.39001e-28
2.316e-28
-3.14113e-28
-1.63499e-27
-3.25074e-27
-3.50207e-27
2.19934e-28
1.02432e-26
2.68072e-26
4.68105e-26
6.42616e-26
7.26513e-26
6.81385e-26
5.16865e-26
2.87834e-26
6.84574e-27
-8.16766e-27
-1.40358e-26
-1.23974e-26
-7.04944e-27
-1.7053e-27
1.51887e-27
2.35789e-27
1.70165e-27
6.54136e-28
-8.35234e-29
-3.39436e-28
-2.72207e-28
-1.1001e-28
8.07278e-30
4.09456e-29
1.41297e-55
-8.74838e-56
8.21575e-55
-3.6397e-54
1.65364e-53
-7.12494e-53
2.92348e-52
-1.13466e-51
4.13274e-51
-1.39621e-50
4.29454e-50
-1.16239e-49
2.56112e-49
-3.43669e-49
-4.76596e-49
5.62386e-48
-2.49443e-47
7.75744e-47
-1.72682e-46
1.99545e-46
3.9072e-46
-3.03059e-45
9.31089e-45
-1.47015e-44
-9.2444e-45
1.30838e-43
-3.79397e-43
3.67411e-43
1.32056e-42
-6.22471e-42
9.03637e-42
1.50053e-41
-9.37497e-41
1.30502e-40
2.78242e-40
-1.37005e-39
1.02736e-39
6.22287e-39
-1.65234e-38
-1.04394e-38
1.09744e-37
-8.12781e-38
-5.25594e-37
9.86388e-37
2.04112e-36
-6.92613e-36
-6.84062e-36
4.04967e-35
2.23907e-35
-2.18129e-34
-9.89391e-35
1.12089e-33
7.08031e-34
-5.44299e-33
-5.94174e-33
2.35033e-32
4.54767e-32
-7.57717e-32
-2.89236e-31
4.34684e-32
1.39577e-30
1.66225e-30
-3.87597e-30
-1.35088e-29
-6.04137e-30
4.69997e-29
1.16537e-28
4.53428e-29
-3.71943e-28
-1.02449e-27
-1.01436e-27
1.284e-27
6.92451e-27
1.39634e-26
1.54875e-26
5.41426e-28
-4.07218e-26
-1.09438e-25
-1.9273e-25
-2.65562e-25
-3.00671e-25
-2.81942e-25
-2.13386e-25
-1.17975e-25
-2.67414e-26
3.54276e-26
5.93374e-26
5.19614e-26
2.92692e-26
6.80767e-27
-6.62629e-27
-1.00127e-26
-7.15262e-27
-2.70468e-27
3.96712e-28
1.45317e-27
1.15109e-27
4.58555e-28
-4.02167e-29
-1.75062e-28
-5.59636e-55
3.53115e-55
-3.28647e-54
1.46128e-53
-6.65576e-53
2.87608e-52
-1.18386e-51
4.61138e-51
-1.68676e-50
5.72895e-50
-1.77493e-49
4.85811e-49
-1.09403e-48
1.58341e-48
1.3598e-48
-2.13248e-47
9.81114e-47
-3.10821e-46
7.04278e-46
-8.51383e-46
-1.43819e-45
1.19881e-44
-3.75563e-44
6.0802e-44
3.20927e-44
-5.19915e-43
1.53764e-42
-1.55207e-42
-5.16911e-42
2.50984e-41
-3.73634e-41
-5.8224e-41
3.78181e-40
-5.39836e-40
-1.09515e-39
5.55156e-39
-4.34238e-39
-2.49222e-38
6.7491e-38
3.99941e-38
-4.44739e-37
3.41546e-37
2.11855e-36
-4.05084e-36
-8.17836e-36
2.8289e-35
2.71749e-35
-1.65072e-34
-8.7998e-35
8.8873e-34
3.88916e-34
-4.56907e-33
-2.82682e-33
2.22089e-32
2.40083e-32
-9.60077e-32
-1.84845e-31
3.09833e-31
1.17879e-30
-1.7819e-31
-5.69187e-30
-6.7959e-30
1.57582e-29
5.51568e-29
2.51903e-29
-1.90828e-28
-4.76777e-28
-1.93912e-28
1.50178e-27
4.18591e-27
4.23851e-27
-4.97368e-27
-2.79265e-26
-5.71866e-26
-6.53921e-26
-8.79626e-27
1.52246e-25
4.22851e-25
7.52269e-25
1.04107e-24
1.18072e-24
1.10693e-24
8.35567e-25
4.58021e-25
9.77136e-26
-1.46587e-25
-2.38759e-25
-2.07065e-25
-1.15384e-25
-2.55941e-26
2.75811e-26
4.04889e-26
2.85971e-26
1.06123e-26
-1.79087e-27
-5.92855e-27
-4.6335e-27
-1.81626e-27
1.88897e-28
7.13195e-28
2.07368e-54
-1.33995e-54
1.23314e-53
-5.50767e-53
2.51611e-52
-1.09101e-51
4.50737e-51
-1.76293e-50
6.47901e-50
-2.21325e-49
6.90923e-49
-1.91265e-48
4.39901e-48
-6.80021e-48
-2.94527e-48
7.57585e-47
-3.63572e-46
1.17562e-45
-2.71535e-45
3.43696e-45
4.90762e-45
-4.47097e-44
1.43182e-43
-2.38198e-43
-1.00248e-43
1.94924e-42
-5.89595e-42
6.22272e-42
1.90346e-41
-9.57032e-41
1.4654e-40
2.12035e-40
-1.44305e-39
2.11922e-39
4.05823e-39
-2.12966e-38
1.74569e-38
9.43037e-38
-2.61342e-37
-1.43076e-37
1.70663e-36
-1.36577e-36
-8.07815e-36
1.57898e-35
3.09581e-35
-1.09583e-34
-1.01759e-34
6.37963e-34
3.24876e-34
-3.43308e-33
-1.43526e-33
1.76612e-32
1.06406e-32
-8.59564e-32
-9.17482e-32
3.72171e-31
7.11712e-31
-1.20325e-30
-4.55489e-30
7.00784e-31
2.20192e-29
2.63324e-29
-6.08077e-29
-2.13625e-28
-9.95341e-29
7.35037e-28
1.85073e-27
7.86583e-28
-5.74926e-27
-1.62293e-26
-1.68241e-26
1.81458e-26
1.06748e-25
2.22319e-25
2.62538e-25
6.21304e-26
-5.30079e-25
-1.53594e-24
-2.76662e-24
-3.84888e-24
-4.37406e-24
-4.09962e-24
-3.08483e-24
-1.6735e-24
-3.29698e-25
5.76084e-25
9.09957e-25
7.80486e-25
4.29477e-25
8.98109e-26
-1.09066e-25
-1.55175e-25
-1.08207e-25
-3.92881e-26
7.65871e-27
2.29446e-26
1.76685e-26
6.79983e-27
-8.35404e-28
-2.75596e-27
-7.09392e-54
4.73164e-54
-4.29016e-53
1.92737e-52
-8.8383e-52
3.84881e-51
-1.59725e-50
6.27773e-50
-2.31985e-49
7.97623e-49
-2.51062e-48
7.03265e-48
-1.6516e-47
2.70821e-47
2.1243e-48
-2.49489e-46
1.25848e-45
-4.16432e-45
9.8239e-45
-1.30432e-44
-1.52527e-44
1.55901e-43
-5.12162e-43
8.782e-43
2.68111e-43
-6.83965e-42
2.12407e-41
-2.35446e-41
-6.53224e-41
3.42673e-40
-5.41905e-40
-7.17023e-40
5.17226e-39
-7.84954e-39
-1.40304e-38
7.68309e-38
-6.64138e-38
-3.34644e-37
9.53534e-37
4.71329e-37
-6.16082e-36
5.17176e-36
2.89371e-35
-5.80872e-35
-1.09884e-34
4.00206e-34
3.56107e-34
-2.32363e-33
-1.11495e-33
1.24977e-32
4.91901e-33
-6.43489e-32
-3.744e-32
3.13723e-31
3.29265e-31
-1.36135e-30
-2.57926e-30
4.41435e-30
1.65864e-29
-2.63964e-30
-8.03404e-29
-9.60981e-29
2.21478e-28
7.8025e-28
3.70346e-28
-2.67062e-27
-6.77699e-27
-3.00927e-27
2.07465e-26
5.93681e-26
6.30934e-26
-6.18486e-26
-3.84427e-25
-8.15845e-25
-9.9716e-25
-3.41524e-25
1.69361e-24
5.19631e-24
9.50807e-24
1.33138e-23
1.51684e-23
1.42121e-23
1.06526e-23
5.70426e-24
1.00573e-24
-2.13866e-24
-3.26425e-24
-2.76396e-24
-1.49825e-24
-2.90297e-25
4.07524e-25
5.60231e-25
3.84978e-25
1.36197e-25
-3.08928e-26
-8.37495e-26
-6.34282e-26
-2.38972e-26
3.46834e-27
1.00425e-26
2.19184e-53
-1.53069e-53
1.35872e-52
-6.15461e-52
2.83693e-51
-1.24253e-50
5.18692e-50
-2.0514e-49
7.63242e-49
-2.64466e-48
8.40368e-48
-2.38464e-47
5.72172e-47
-9.90941e-47
2.25494e-47
7.49513e-46
-4.01854e-45
1.3659e-44
-3.30073e-44
4.61213e-44
4.18409e-44
-5.0218e-43
1.70115e-42
-3.02008e-42
-5.33978e-43
2.2204e-41
-7.12057e-41
8.34383e-41
2.06019e-40
-1.14084e-39
1.87446e-39
2.21489e-39
-1.72463e-38
2.72222e-38
4.4654e-38
-2.58308e-37
2.37558e-37
1.10204e-36
-3.25126e-36
-1.3968e-36
2.0736e-35
-1.84289e-35
-9.64506e-35
2.00167e-34
3.61874e-34
-1.36709e-33
-1.15017e-33
7.91169e-33
3.5003e-33
-4.25295e-32
-1.53948e-32
2.19239e-31
1.21615e-31
-1.07138e-30
-1.09883e-30
4.66365e-30
8.72172e-30
-1.5192e-29
-5.64588e-29
9.50405e-30
2.74346e-28
3.27528e-28
-7.55899e-28
-2.66656e-27
-1.28651e-27
9.08371e-27
2.32303e-26
1.07761e-26
-7.00205e-26
-2.03359e-25
-2.21953e-25
1.94703e-25
1.29388e-24
2.80529e-24
3.55923e-24
1.61503e-24
-4.84441e-24
-1.61519e-23
-3.01779e-23
-4.26142e-23
-4.87062e-23
-4.56164e-23
-3.40207e-23
-1.79097e-23
-2.6645e-24
7.44626e-24
1.09289e-23
9.11206e-24
4.84874e-24
8.46129e-25
-1.42863e-24
-1.88988e-24
-1.27649e-24
-4.37431e-25
1.16847e-25
2.86083e-25
2.12583e-25
7.80932e-26
-1.34518e-26
-3.42403e-26
-5.86202e-53
4.41595e-53
-3.7887e-52
1.73892e-51
-8.07962e-51
3.56963e-50
-1.50309e-49
5.99769e-49
-2.25247e-48
7.88518e-48
-2.53557e-47
7.30564e-47
-1.79459e-46
3.27857e-46
-1.6513e-46
-1.9996e-45
1.16052e-44
-4.07626e-44
1.01383e-43
-1.49994e-43
-9.45946e-44
1.46622e-42
-5.1653e-42
9.56287e-42
2.63723e-43
-6.55046e-41
2.18972e-40
-2.74041e-40
-5.83609e-40
3.48003e-39
-5.99625e-39
-6.07481e-39
5.27345e-38
-8.74401e-38
-1.2802e-37
7.98626e-37
-7.91876e-37
-3.31506e-36
1.02391e-35
3.55659e-36
-6.42334e-35
6.12733e-35
2.94919e-34
-6.39375e-34
-1.08811e-33
4.31931e-33
3.36095e-33
-2.48951e-32
-9.7766e-33
1.33741e-31
4.27117e-32
-6.9061e-31
-3.57498e-31
3.38607e-30
3.36028e-30
-1.48066e-29
-2.71746e-29
4.85761e-29
1.77589e-28
-3.26261e-29
-8.67343e-28
-1.02997e-27
2.39328e-27
8.43407e-27
4.12112e-27
-2.86209e-26
-7.37425e-26
-3.57375e-26
2.18635e-25
6.45404e-25
7.25202e-25
-5.56361e-25
-4.02429e-24
-8.94591e-24
-1.18314e-23
-6.78187e-24
1.18131e-23
4.51239e-23
8.68616e-23
1.24088e-22
1.42446e-22
1.33334e-22
9.87636e-23
5.07665e-23
5.55297e-24
-2.40745e-23
-3.37401e-23
-2.75942e-23
-1.4336e-23
-2.13719e-24
4.65292e-24
5.88845e-24
3.89453e-24
1.28102e-24
-4.11046e-25
-9.04665e-25
-6.57307e-25
-2.34039e-25
4.83797e-26
1.08044e-25
1.21739e-52
-1.07465e-52
8.62292e-52
-4.06318e-51
1.91678e-50
-8.60561e-50
3.67989e-49
-1.49089e-48
5.68565e-48
-2.02234e-47
6.61733e-47
-1.94655e-46
4.92199e-46
-9.5226e-46
7.35103e-46
4.49071e-45
-2.92396e-44
1.07327e-43
-2.77187e-43
4.3938e-43
1.4025e-43
-3.75067e-42
1.3964e-41
-2.73108e-41
4.32604e-42
1.70164e-40
-6.03434e-40
8.20957e-40
1.42098e-39
-9.4932e-39
1.7433e-38
1.39406e-38
-1.44433e-37
2.55911e-37
3.17357e-37
-2.22283e-36
2.42874e-36
8.86794e-36
-2.92481e-35
-6.89003e-36
1.79383e-34
-1.87797e-34
-8.08341e-34
1.86351e-33
2.90709e-33
-1.2408e-32
-8.56735e-33
7.11267e-32
2.2927e-32
-3.8183e-31
-9.85845e-32
1.97679e-30
9.16979e-31
-9.74024e-30
-9.19074e-30
4.28874e-29
7.64846e-29
-1.42286e-28
-5.07125e-28
1.06395e-28
2.49749e-27
2.93239e-27
-6.92551e-27
-2.428e-26
-1.19384e-26
8.22242e-26
2.13281e-25
1.08005e-25
-6.2127e-25
-1.86789e-24
-2.16874e-24
1.40107e-24
1.13688e-23
2.60549e-23
3.61502e-23
2.55139e-23
-2.15231e-23
-1.08745e-22
-2.19622e-22
-3.19338e-22
-3.6897e-22
-3.45074e-22
-2.52999e-22
-1.25289e-22
-5.75409e-24
7.12196e-23
9.42639e-23
7.5143e-23
3.7757e-23
4.25164e-24
-1.38765e-23
-1.6648e-23
-1.07161e-23
-3.33046e-24
1.32898e-24
2.60509e-24
1.84082e-24
6.29118e-25
-1.59542e-25
-3.10326e-25
-1.11669e-52
1.87445e-52
-1.21576e-51
6.26706e-51
-3.0984e-50
1.45708e-49
-6.49476e-49
2.73413e-48
-1.08091e-47
3.9806e-47
-1.34871e-46
4.11876e-46
-1.09031e-45
2.27469e-45
-2.45205e-45
-7.33064e-45
5.92016e-44
-2.33439e-43
6.39254e-43
-1.11549e-42
8.58246e-44
7.79288e-42
-3.18791e-41
6.77391e-41
-2.84973e-41
-3.63661e-40
1.42492e-39
-2.18406e-39
-2.66012e-39
2.20949e-38
-4.4699e-38
-2.23673e-38
3.3873e-37
-6.63768e-37
-6.15596e-37
5.35507e-36
-6.71769e-36
-1.99873e-35
7.34194e-35
4.89056e-36
-4.34943e-34
5.2068e-34
1.90046e-33
-4.82731e-33
-6.53016e-33
3.14727e-32
1.7512e-32
-1.78965e-31
-3.79625e-32
9.59897e-31
1.54662e-31
-4.99079e-30
-1.88626e-30
2.47902e-29
2.14506e-29
-1.10401e-28
-1.87653e-28
3.73198e-28
1.27501e-27
-3.27707e-28
-6.37148e-27
-7.30915e-27
1.78756e-26
6.18435e-26
3.02011e-26
-2.09781e-25
-5.46806e-25
-2.89469e-25
1.56271e-24
4.80027e-24
5.79541e-24
-2.92766e-24
-2.83256e-23
-6.75702e-23
-9.94368e-23
-8.56523e-23
1.2064e-23
2.04753e-22
4.55657e-22
6.84341e-22
7.99837e-22
7.46913e-22
5.37682e-22
2.47951e-22
-2.0407e-23
-1.88183e-22
-2.30592e-22
-1.76971e-22
-8.43229e-23
-4.38931e-24
3.70106e-23
4.14193e-23
2.56512e-23
7.29039e-24
-3.87603e-24
-6.64387e-24
-4.5217e-24
-1.45577e-24
4.73754e-25
7.88834e-25
-5.80018e-52
-3.24498e-53
-1.50891e-51
3.82709e-51
-9.45553e-51
2.57244e-51
1.47619e-49
-1.21104e-48
6.87424e-48
-3.23529e-47
1.32158e-46
-4.7208e-46
1.44935e-45
-3.60876e-45
5.91747e-45
2.70256e-45
-7.05929e-44
3.39779e-43
-1.06905e-42
2.24175e-42
-1.63475e-42
-1.0058e-41
5.30616e-41
-1.33655e-40
1.19638e-40
5.12136e-40
-2.575e-39
4.89179e-39
2.14536e-39
-3.88423e-38
9.49231e-38
-5.79353e-40
-6.07017e-37
1.44261e-36
5.91485e-37
-1.01786e-35
1.61626e-35
3.2626e-35
-1.51382e-34
3.69463e-35
8.39374e-34
-1.26334e-33
-3.43331e-33
1.05516e-32
1.05399e-32
-6.63504e-32
-2.06955e-32
3.71951e-31
1.74035e-33
-1.99252e-30
4.73952e-32
1.04472e-29
2.23993e-30
-5.27046e-29
-3.78197e-29
2.39853e-28
3.70403e-28
-8.39946e-28
-2.64608e-27
9.44216e-28
1.36224e-26
1.48195e-26
-3.92793e-26
-1.31574e-25
-6.1694e-26
4.51225e-25
1.17597e-24
6.51354e-25
-3.29116e-24
-1.03907e-23
-1.32176e-23
4.25875e-24
5.85777e-23
1.4851e-22
2.37102e-22
2.52305e-22
1.18072e-22
-1.93737e-22
-6.22659e-22
-1.02498e-21
-1.23436e-21
-1.14823e-21
-7.87316e-22
-2.89303e-22
1.61375e-22
4.24067e-22
4.59886e-22
3.29163e-22
1.40316e-22
-1.20285e-23
-8.44053e-23
-8.50312e-23
-4.92627e-23
-1.16267e-23
9.86521e-24
1.41871e-23
9.09522e-24
2.62919e-24
-1.22628e-24
-1.67624e-24
4.30945e-51
-1.5248e-51
1.96562e-50
-7.89478e-50
3.36889e-49
-1.3482e-48
5.11582e-48
-1.82389e-47
6.0513e-47
-1.84136e-46
5.01856e-46
-1.17138e-45
2.09506e-45
-1.654e-45
-6.54853e-45
3.74444e-44
-1.02551e-43
1.23569e-43
3.36821e-43
-2.45648e-42
7.39028e-42
-9.963e-42
-1.92226e-41
1.48005e-40
-3.87222e-40
2.46783e-40
1.97466e-39
-7.96117e-39
1.01603e-38
2.55063e-38
-1.37799e-37
1.84502e-37
4.56726e-37
-2.24084e-36
1.88899e-36
1.03755e-35
-3.11919e-35
-1.00939e-35
2.06477e-34
-2.39503e-34
-9.16597e-34
2.4965e-33
2.74079e-33
-1.69064e-32
-2.56274e-33
9.71303e-32
-3.46814e-32
-5.23856e-31
3.13227e-31
2.79891e-30
-1.58756e-30
-1.50478e-29
3.83271e-30
7.93258e-29
2.48929e-29
-3.8259e-28
-4.38604e-28
1.46253e-27
3.71134e-27
-2.50163e-27
-2.08697e-26
-1.90141e-26
6.52563e-26
1.98093e-25
7.67658e-26
-7.10916e-25
-1.8172e-24
-1.05534e-24
4.96417e-24
1.64e-23
2.29058e-23
-2.43359e-25
-8.39946e-23
-2.42889e-22
-4.49332e-22
-6.26984e-22
-6.79871e-22
-5.49632e-22
-2.66184e-22
4.86844e-23
2.38454e-22
2.00268e-22
-5.19628e-23
-3.92542e-22
-6.55342e-22
-7.24758e-22
-5.89973e-22
-3.34594e-22
-7.7603e-23
9.16583e-23
1.47113e-22
1.18081e-22
5.64447e-23
4.42115e-24
-2.03856e-23
-2.16332e-23
-1.20018e-23
-2.4199e-24
2.57754e-24
2.52949e-24
-1.78143e-50
8.19447e-51
-9.03281e-50
3.80729e-49
-1.68042e-48
7.0119e-48
-2.78965e-47
1.0511e-46
-3.72535e-46
1.23004e-45
-3.7291e-45
1.01341e-44
-2.35562e-44
4.14374e-44
-2.67981e-44
-1.74932e-43
9.87489e-43
-3.1209e-42
6.46316e-42
-5.33204e-42
-2.21997e-41
1.20059e-40
-2.96328e-40
2.72126e-40
9.69389e-40
-4.88008e-39
9.16914e-39
2.84797e-39
-6.42945e-38
1.57055e-37
-1.84378e-38
-8.88681e-37
2.15699e-36
4.97116e-37
-1.34557e-35
2.27484e-35
3.58617e-35
-1.85899e-34
8.03244e-35
9.09084e-34
-1.55777e-33
-3.16111e-33
1.13298e-32
7.10448e-33
-6.3779e-32
1.38347e-34
3.22953e-31
-1.00973e-31
-1.57627e-30
5.68812e-31
7.61596e-30
-1.07856e-30
-3.58436e-29
-1.1959e-29
1.54132e-28
1.65454e-28
-5.24293e-28
-1.21943e-27
7.94453e-28
5.89436e-27
5.113e-27
-1.43656e-26
-4.28247e-26
-2.91813e-26
8.54065e-26
2.95406e-25
4.8189e-25
3.04611e-25
-1.22819e-24
-6.22066e-24
-1.62209e-23
-2.44543e-23
6.75176e-26
1.30211e-22
4.82798e-22
1.18527e-21
2.30361e-21
3.75996e-21
5.2936e-21
6.5117e-21
7.02905e-21
6.63646e-21
5.40717e-21
3.67734e-21
1.90744e-21
4.98146e-22
-3.45027e-22
-6.41201e-22
-5.6469e-22
-3.32323e-22
-1.10493e-22
2.3135e-23
6.64691e-23
5.50158e-23
2.68414e-23
4.71808e-24
-5.14348e-24
-6.0467e-24
-3.47501e-24
-4.44695e-25
5.41842e-50
-2.81295e-50
2.90196e-49
-1.25092e-48
5.60482e-48
-2.38066e-47
9.65419e-47
-3.71512e-46
1.34822e-45
-4.57392e-45
1.43217e-44
-4.05444e-44
9.9891e-44
-1.95696e-43
2.09774e-43
4.55064e-43
-3.66909e-42
1.331e-41
-3.21918e-41
4.32102e-41
4.46425e-41
-4.67123e-40
1.46884e-39
-2.26917e-39
-1.62666e-39
2.00988e-38
-5.44635e-38
4.13768e-38
2.18169e-37
-8.7087e-37
9.99884e-37
2.73693e-36
-1.26218e-35
1.25032e-35
4.75945e-35
-1.69048e-34
4.29566e-35
8.94399e-34
-1.69389e-33
-2.5113e-33
1.28588e-32
-1.92666e-33
-6.82367e-32
7.6549e-32
3.01926e-31
-6.2132e-31
-1.22702e-30
3.79357e-30
5.08943e-30
-2.03748e-29
-2.42266e-29
1.00516e-28
1.37745e-28
-4.49537e-28
-8.58149e-28
1.67468e-27
5.17963e-27
-3.68974e-27
-2.72295e-26
-1.1431e-26
1.08876e-25
1.88923e-25
-2.12118e-25
-1.12852e-24
-9.26284e-25
3.08298e-24
9.42525e-24
5.96394e-24
-2.47237e-23
-7.59231e-23
-7.77958e-23
9.56327e-23
5.10302e-22
9.56719e-22
7.78431e-22
-1.03293e-21
-5.35588e-21
-1.22358e-20
-2.04017e-20
-2.74532e-20
-3.08011e-20
-2.89264e-20
-2.22213e-20
-1.28767e-20
-3.85528e-21
2.44869e-21
5.11361e-21
4.74666e-21
2.82156e-21
8.00459e-22
-4.63159e-22
-8.32487e-22
-6.25116e-22
-2.52696e-22
1.77165e-23
1.1576e-22
9.56672e-23
3.94799e-23
-2.08721e-24
-1.39578e-23
-1.19547e-49
6.88579e-50
-6.73202e-49
2.95856e-48
-1.34262e-47
5.78744e-47
-2.3837e-46
9.32831e-46
-3.44824e-45
1.19434e-44
-3.83135e-44
1.11775e-43
-2.87091e-43
6.04528e-43
-8.18862e-43
-5.88003e-43
8.84797e-42
-3.60823e-41
9.58279e-41
-1.54267e-40
-3.01319e-41
1.17466e-39
-4.28646e-39
7.93428e-39
2.13207e-40
-5.25638e-38
1.70149e-37
-1.95329e-37
-4.94795e-37
2.63756e-36
-4.08719e-36
-5.702e-36
3.8894e-35
-5.53919e-35
-1.12545e-34
5.58826e-34
-4.04165e-34
-2.54171e-33
6.50834e-33
4.73755e-33
-4.34506e-32
2.73798e-32
2.1165e-31
-3.58283e-31
-8.53834e-31
2.55141e-30
3.09053e-30
-1.4956e-29
-1.14408e-29
8.01043e-29
5.40581e-29
-4.05181e-28
-3.53053e-28
1.90947e-27
2.6137e-27
-7.80826e-27
-1.81737e-26
2.20542e-26
1.06929e-25
1.38057e-26
-4.74234e-25
-6.96741e-25
1.09798e-24
4.79574e-24
3.42049e-24
-1.41113e-23
-4.1562e-23
-2.77991e-23
1.05261e-22
3.47e-22
4.27921e-22
-2.06273e-22
-2.03143e-21
-4.68784e-21
-6.29365e-21
-3.60369e-21
6.51591e-21
2.47755e-20
4.7752e-20
6.83052e-20
7.84723e-20
7.34666e-20
5.43942e-20
2.79262e-20
3.04201e-21
-1.31951e-20
-1.84135e-20
-1.49597e-20
-7.66424e-21
-1.02127e-21
2.61623e-21
3.21551e-21
2.08243e-21
6.50189e-22
-2.54386e-22
-5.00711e-22
-3.51705e-22
-1.17923e-22
3.25536e-23
5.94925e-23
1.36595e-49
-9.87218e-50
8.66622e-49
-3.96885e-48
1.84879e-47
-8.20441e-47
3.48043e-46
-1.4045e-45
5.36281e-45
-1.92365e-44
6.41714e-44
-1.96069e-43
5.34797e-43
-1.23717e-42
2.10942e-42
-9.26829e-43
-1.13622e-41
5.90127e-41
-1.80047e-40
3.52588e-40
-1.96402e-40
-1.66101e-39
7.75046e-39
-1.75125e-38
1.05558e-38
8.0005e-38
-3.32495e-37
5.27027e-37
5.54294e-37
-4.95329e-36
1.00421e-35
4.92209e-36
-7.43682e-35
1.42497e-34
1.41122e-34
-1.14866e-33
1.3553e-33
4.39084e-33
-1.51653e-32
-2.65451e-33
9.09826e-32
-9.75308e-32
-4.06585e-31
9.40458e-31
1.46868e-30
-6.19763e-30
-4.46261e-30
3.53303e-29
1.30892e-29
-1.88767e-28
-6.11387e-29
9.70483e-28
5.31068e-28
-4.72286e-27
-4.95654e-27
2.03127e-26
3.94049e-26
-6.36291e-26
-2.51904e-25
1.44213e-26
1.18829e-24
1.58056e-24
-2.97166e-24
-1.18765e-23
-7.9158e-24
3.60173e-23
1.05324e-22
7.49931e-23
-2.55691e-22
-8.9413e-22
-1.22533e-21
1.48555e-22
4.73197e-21
1.25292e-20
2.04126e-20
2.20994e-20
1.08378e-20
-1.60014e-20
-5.32615e-20
-8.83925e-20
-1.06767e-19
-9.9326e-20
-6.78691e-20
-2.44957e-20
1.46063e-20
3.71614e-20
3.98884e-20
2.82074e-20
1.16756e-20
-1.46927e-21
-7.54453e-21
-7.39216e-21
-4.16902e-21
-8.8634e-22
9.32506e-22
1.25072e-21
7.73967e-22
2.05204e-22
-1.21268e-22
-1.47084e-22
2.77114e-49
-7.73954e-50
1.1611e-48
-4.44637e-48
1.82281e-47
-6.89688e-47
2.42749e-46
-7.76848e-46
2.17587e-45
-4.85042e-45
5.59021e-45
1.94291e-44
-1.75242e-43
8.12896e-43
-2.82534e-42
7.64634e-42
-1.46579e-41
9.19326e-42
6.91913e-41
-3.63815e-40
9.95148e-40
-1.33682e-39
-1.93649e-39
1.63952e-38
-4.41705e-38
3.6858e-38
1.78891e-37
-7.95786e-37
1.15489e-36
1.96957e-36
-1.26917e-35
1.93087e-35
3.45618e-35
-1.98568e-34
2.02337e-34
8.25253e-34
-2.74223e-33
-3.46468e-34
1.69446e-32
-2.20098e-32
-7.11554e-32
2.09726e-31
1.96598e-31
-1.36826e-30
-8.805e-32
7.69719e-30
-3.19652e-30
-4.10305e-29
2.60021e-29
2.17934e-28
-1.26101e-28
-1.16727e-27
2.81951e-28
6.11926e-27
2.13667e-27
-2.9172e-26
-3.52587e-26
1.08438e-25
2.90508e-25
-1.58425e-25
-1.58464e-24
-1.63309e-24
4.60232e-24
1.5421e-23
8.54915e-24
-5.01205e-23
-1.43413e-22
-1.12851e-22
3.21931e-22
1.26038e-21
2.04304e-21
7.81531e-22
-5.37212e-21
-1.88716e-20
-3.9848e-20
-6.49406e-20
-8.81445e-20
-1.03663e-19
-1.091e-19
-1.0669e-19
-1.01474e-19
-9.75541e-20
-9.51687e-20
-9.07231e-20
-7.97715e-20
-6.06664e-20
-3.62466e-20
-1.24782e-20
4.81642e-21
1.28564e-20
1.27293e-20
8.05499e-21
2.72376e-21
-8.22955e-22
-2.03807e-21
-1.65608e-21
-7.42597e-22
-3.07744e-23
2.68187e-22
1.90672e-22
-2.1137e-48
1.0205e-48
-1.09488e-47
4.65596e-47
-2.06715e-46
8.68614e-46
-3.48178e-45
1.32276e-44
-4.73152e-44
1.57866e-43
-4.84493e-43
1.33669e-42
-3.17221e-42
5.78953e-42
-4.52246e-42
-2.13602e-41
1.31768e-40
-4.37323e-40
9.67728e-40
-1.02678e-39
-2.42834e-39
1.62816e-38
-4.47948e-38
5.48649e-38
9.91349e-38
-6.78465e-37
1.53199e-36
-4.2905e-37
-8.2093e-36
2.53676e-35
-1.72198e-35
-1.08802e-34
3.59681e-34
-1.65135e-34
-1.74285e-33
4.38145e-33
1.87798e-33
-2.79055e-32
3.34418e-32
1.05896e-31
-3.21882e-31
-1.9212e-31
1.92564e-30
-7.64011e-31
-9.47794e-30
1.03028e-29
4.29452e-29
-7.00394e-29
-1.94349e-28
3.78467e-28
9.31087e-28
-1.74914e-27
-4.76691e-27
6.67475e-27
2.48773e-26
-1.66437e-26
-1.22092e-25
-2.10347e-26
5.07622e-25
5.85186e-25
-1.47263e-24
-4.08412e-24
7.37346e-25
1.67645e-23