/*--------------------------------*- C++ -*----------------------------------*\
  =========                 |
  \\      /  F ield         | OpenFOAM: The Open Source CFD Toolbox
   \\    /   O peration     | Website:  https://openfoam.org
    \\  /    A nd           | Version:  13
     \\/     M anipulation  |
\*---------------------------------------------------------------------------*/
FoamFile
{
    format      ascii;
    class       volScalarField;
    location    "1.6";
    object      T;
}
// * * * * * * * * * * * * * * * * * * * * * * * * * * * * * * * * * * * * * //

dimensions      [0 0 0 1 0 0 0];

internalField   nonuniform List<scalar> 
10000
(
0
0
0
0
0
0
0
0
0
0
0
0
0
0
0
0
0
0
0
0
0
0
0
0
0
0
0
0
0
0
0
0
0
0
0
0
0
0
0
0
0
0
0
0
0
0
0
0
0
0
0
0
0
0
0
0
0
0
0
0
0
0
0
0
0
0
0
0
0
0
0
0
0
0
0
0
0
0
0
0
0
0
0
0
0
0
0
0
0
0
0
0
0
0
0
0
0
0
0
0
0
0
0
0
0
0
0
0
0
0
0
0
0
0
0
0
0
0
0
0
0
0
0
0
0
0
0
0
0
0
0
0
0
0
0
0
0
0
0
0
0
0
0
0
0
0
0
0
0
0
0
0
0
0
0
0
0
0
0
0
0
0
0
0
0
0
0
0
0
0
0
0
0
0
0
0
0
0
0
0
0
0
0
0
0
0
0
0
0
0
0
0
0
0
0
0
0
0
0
0
0
0
0
0
0
0
0
0
0
0
0
0
0
0
0
0
0
0
0
0
0
0
0
0
0
0
0
0
0
0
0
0
0
0
0
0
0
0
0
0
0
0
0
0
0
0
0
0
0
0
0
0
0
0
0
0
0
0
0
0
0
0
0
0
0
0
0
0
0
0
0
0
0
0
0
0
0
0
0
0
0
0
0
0
0
0
0
0
0
0
0
0
0
0
0
0
0
0
0
0
0
0
0
0
0
0
0
0
0
0
0
0
0
0
0
0
0
0
0
0
0
0
0
0
0
0
0
0
0
0
0
0
0
0
0
0
0
0
0
0
0
0
0
0
0
0
0
0
0
0
0
0
0
0
0
0
0
0
0
0
0
0
0
0
0
0
0
0
0
0
0
0
0
0
0
0
0
0
0
0
0
0
0
0
0
0
0
0
0
0
0
0
0
0
0
0
0
0
0
0
0
0
0
0
0
0
0
0
0
0
0
0
0
0
0
0
0
0
0
0
0
0
0
0
0
0
0
0
0
0
0
0
0
0
0
0
0
0
0
0
0
0
0
0
0
0
0
0
0
0
0
0
0
0
0
0
0
0
0
0
0
0
0
0
0
0
0
0
0
0
0
0
0
0
0
0
0
0
0
0
0
0
0
0
0
0
0
0
0
0
0
0
0
0
0
0
0
0
0
0
0
0
0
0
0
0
0
0
0
0
0
0
0
0
0
0
0
0
0
0
0
0
0
0
0
0
0
0
0
0
0
0
0
0
0
0
0
0
0
0
0
0
0
0
0
0
0
0
0
0
0
0
0
0
0
0
0
0
0
0
0
0
0
0
0
0
0
0
0
0
0
0
0
0
0
0
0
0
0
0
0
0
0
0
0
0
0
0
0
0
0
0
0
0
0
0
0
0
0
0
0
0
0
0
0
0
0
0
0
0
0
0
0
0
0
0
0
0
0
0
0
0
0
0
0
0
0
0
0
0
0
0
0
0
0
0
0
0
0
0
0
0
0
0
0
0
0
0
0
0
0
0
0
0
0
0
0
0
0
0
0
0
0
0
0
0
0
0
0
0
0
0
0
0
0
0
0
0
0
0
0
0
0
0
0
0
0
0
0
0
0
0
0
0
0
0
0
0
0
0
0
0
0
0
0
0
0
0
0
0
0
0
0
0
0
0
0
0
0
0
0
0
0
0
0
0
0
0
0
0
0
0
0
0
0
0
0
0
0
0
0
0
0
0
0
0
0
0
0
0
0
0
0
0
0
0
0
0
0
0
0
0
0
0
0
0
0
0
0
0
0
0
0
0
0
0
0
0
0
0
0
0
0
0
0
0
0
0
0
0
0
0
0
0
0
0
0
0
0
0
0
0
0
0
0
0
0
0
0
0
0
0
0
0
0
0
0
0
0
0
0
0
0
0
0
0
0
0
0
0
0
0
0
0
0
0
0
0
0
0
0
0
0
0
0
0
0
0
0
0
0
0
0
0
0
0
0
0
0
0
0
0
0
0
0
0
0
0
0
0
0
0
0
0
0
0
0
0
0
0
0
0
0
0
0
0
0
0
0
0
0
0
0
0
0
0
0
0
0
0
0
0
0
0
0
0
0
0
0
0
0
0
0
0
0
0
0
0
0
0
0
0
0
0
0
0
0
0
0
0
0
0
0
0
0
0
0
0
0
0
0
0
0
0
0
0
0
0
0
0
0
0
0
0
0
0
0
0
0
0
0
0
0
0
0
0
0
0
0
0
0
0
0
0
0
0
0
0
0
0
0
0
0
0
0
0
0
0
0
0
0
0
0
0
0
0
0
0
0
0
0
0
0
0
0
0
0
0
0
0
0
0
0
0
0
0
0
0
0
0
0
0
0
0
0
0
0
0
0
0
0
0
0
0
0
0
0
0
0
0
0
0
0
0
0
0
0
0
0
0
0
0
0
0
0
0
0
0
0
0
0
0
0
0
0
0
0
0
0
0
0
0
0
0
0
0
0
0
0
0
0
0
0
0
0
0
0
0
0
0
0
0
0
0
0
0
0
0
0
0
0
0
0
0
0
0
0
0
0
0
0
0
0
0
0
0
0
0
0
0
0
0
0
0
0
0
0
0
0
0
0
0
0
0
0
0
0
0
0
0
0
0
0
0
0
0
0
0
0
0
0
0
0
0
0
0
0
0
0
0
0
0
0
0
0
0
0
0
0
0
0
0
0
0
0
0
0
0
0
0
0
0
0
0
0
0
0
0
0
0
0
0
0
0
0
0
0
0
0
0
0
0
0
0
0
0
0
0
0
0
0
0
0
0
0
0
0
0
0
0
0
0
0
0
0
0
0
0
0
0
0
0
0
0
0
0
0
0
0
0
0
0
0
0
0
0
0
0
0
0
0
0
0
0
0
0
0
0
0
0
0
0
0
0
0
0
0
0
0
0
0
0
0
0
0
0
0
0
0
0
0
0
0
0
0
0
0
0
0
0
0
0
0
0
0
0
0
0
0
0
0
0
0
0
0
0
0
0
0
0
0
0
0
0
0
0
0
0
0
0
0
0
0
0
0
0
0
0
0
0
0
0
0
0
0
0
0
0
0
0
0
0
0
0
0
0
0
0
0
0
0
0
0
0
0
0
0
0
0
0
0
0
0
0
0
0
0
0
0
0
0
0
0
0
0
0
0
0
0
0
0
0
0
0
0
0
0
0
0
0
0
0
0
0
0
0
0
0
0
0
0
0
0
0
0
0
0
0
0
0
0
0
0
0
0
0
0
0
0
0
0
0
0
0
0
0
0
0
0
0
0
0
0
0
0
0
0
0
0
0
0
0
0
0
0
0
0
0
0
0
0
0
0
0
0
0
0
0
0
0
0
0
0
0
0
0
0
0
0
0
0
0
0
0
0
0
0
0
0
0
0
0
0
0
0
0
0
0
0
0
0
0
0
0
0
0
0
0
0
0
0
0
0
0
0
0
0
0
0
0
0
0
0
0
0
0
0
0
0
0
0
0
0
0
0
0
0
0
0
0
0
0
0
0
0
0
0
0
0
0
0
0
0
0
0
0
0
0
0
0
0
0
0
0
0
0
0
0
0
0
0
0
0
0
0
0
0
0
0
0
0
0
0
0
0
0
0
0
0
0
0
0
0
0
0
0
0
0
0
0
0
0
0
0
0
0
0
0
0
0
0
0
0
0
0
0
0
0
0
0
0
0
0
0
0
0
0
0
0
0
0
0
0
0
0
0
0
0
0
0
0
0
0
0
0
0
0
0
0
0
0
0
0
0
0
0
0
0
0
0
0
0
0
0
0
0
0
0
0
0
0
0
0
0
0
0
0
0
0
0
0
0
0
0
0
0
0
0
0
0
0
0
0
0
0
0
0
0
0
0
0
0
0
0
0
0
0
0
0
0
0
0
0
0
0
0
0
0
0
0
0
0
0
0
0
0
0
0
0
0
0
0
0
0
0
0
0
0
0
0
0
0
0
0
0
0
0
0
0
0
0
0
0
0
0
0
0
0
0
0
0
0
0
0
0
0
0
0
0
0
0
0
0
0
0
0
0
0
0
0
0
0
0
0
0
0
0
0
0
0
0
0
0
0
0
0
0
0
0
0
0
0
0
0
0
0
0
0
0
0
0
0
0
0
0
0
0
0
0
0
0
0
0
0
0
0
0
0
0
0
0
0
0
0
0
0
0
0
0
0
0
0
0
0
0
0
0
0
0
0
0
0
0
0
0
0
0
0
0
0
0
0
0
0
0
0
0
0
0
0
0
0
0
0
0
0
0
0
0
0
0
0
0
0
0
0
0
0
0
0
0
0
0
0
0
0
0
0
0
0
0
0
0
0
0
0
0
0
0
0
0
0
0
0
0
0
0
0
0
0
0
0
0
0
0
0
0
0
0
0
0
0
0
0
0
0
0
0
0
0
0
0
0
0
0
0
0
0
0
0
0
0
0
0
0
0
0
0
0
0
0
0
0
0
0
0
0
0
0
0
0
0
0
0
0
0
0
0
0
0
0
0
0
0
0
0
0
0
0
0
0
0
0
0
0
0
0
0
0
0
0
0
0
0
0
0
0
0
0
0
0
0
0
0
0
0
0
0
0
0
0
0
0
0
0
0
0
0
0
0
0
0
0
0
0
0
0
0
0
0
0
0
0
0
0
0
0
0
0
0
0
0
0
0
0
0
0
0
0
0
0
0
0
0
0
0
0
0
0
0
0
0
0
0
0
0
0
0
0
0
0
0
0
0
0
0
0
0
0
0
0
0
0
0
0
0
0
0
0
0
0
0
0
0
0
0
0
0
0
0
0
0
0
0
0
0
0
0
0
0
0
0
0
0
0
0
0
0
0
0
0
0
0
0
0
0
0
0
0
0
0
0
0
0
0
0
0
0
0
0
0
0
0
0
0
0
0
0
0
0
0
0
0
0
0
0
0
0
0
0
0
0
0
0
0
0
0
0
0
0
0
0
0
0
0
0
0
0
0
0
0
0
0
0
0
0
0
0
0
0
0
0
0
0
0
0
0
0
0
0
0
0
0
0
0
0
0
0
0
0
0
0
0
0
0
0
0
0
0
0
0
0
0
0
0
0
0
0
0
0
0
0
0
0
0
0
0
0
0
0
0
0
0
0
0
0
0
0
0
0
0
0
0
0
0
0
0
0
0
0
0
0
0
0
0
0
0
0
0
0
0
0
0
0
0
0
0
0
0
0
0
0
0
0
0
0
0
0
0
0
0
0
0
0
0
0
0
0
0
0
0
0
0
0
0
0
0
0
0
0
0
0
0
0
0
0
0
0
0
0
0
0
0
0
0
0
0
0
0
0
0
0
0
0
0
0
0
0
0
0
0
0
0
0
0
0
0
0
0
0
0
0
0
0
0
0
0
0
0
0
0
0
0
0
0
0
0
0
0
0
0
0
0
0
0
0
0
0
0
0
0
0
0
0
0
0
0
0
0
0
0
0
0
0
0
0
0
0
0
0
0
0
0
0
0
0
0
0
0
0
0
0
0
0
0
0
0
0
0
0
0
0
0
0
0
0
0
0
0
0
0
0
0
0
0
0
0
0
-1.18576e-321
-1.08497e-320
2.97329e-320
-4.29887e-320
2.86538e-319
-2.32707e-318
1.14531e-317
-3.75386e-317
5.41663e-317
1.33765e-316
-4.08348e-316
-7.14575e-317
5.26588e-316
-5.88754e-315
5.65748e-314
-2.04257e-314
-2.81989e-314
-2.46102e-314
-9.0745e-315
1.23679e-314
4.21829e-314
-1.6098e-314
-3.92952e-314
1.97437e-314
1.47524e-314
2.23095e-315
-3.70297e-315
4.06428e-315
-1.07745e-314
-2.13608e-314
7.22538e-315
1.48272e-314
-9.24219e-315
1.25392e-314
4.8442e-315
-1.27957e-315
1.61279e-315
-9.09652e-316
-1.41339e-315
-2.04271e-316
-1.19648e-315
-8.82824e-317
4.10592e-316
3.61153e-316
-1.72765e-316
-6.71471e-318
-8.77177e-318
2.12143e-318
-9.65955e-318
6.95938e-318
1.03647e-317
-1.32217e-318
-1.69645e-318
-4.76561e-319
-2.89246e-319
1.23008e-319
1.46416e-319
5.95399e-320
8.82401e-321
-1.10918e-320
1.90215e-321
1.82804e-321
0
0
0
0
0
0
0
0
0
0
0
0
0
0
0
0
0
0
-2.56914e-322
1.3651e-320
-1.5233e-319
1.39686e-318
-1.35569e-317
1.36073e-316
-1.24273e-315
1.07236e-314
-6.5268e-314
4.34399e-313
-3.96837e-312
2.87521e-311
-1.92768e-310
8.24332e-310
-6.77138e-309
3.40185e-308
-1.35451e-307
3.78831e-307
-8.82748e-307
3.49743e-306
1.75488e-306
-2.15865e-305
1.30786e-305
-1.63932e-306
7.38607e-305
-5.0626e-304
2.76611e-303
-8.4815e-303
-1.19708e-302
4.89508e-301
-5.81666e-300
4.89726e-299
-1.03601e-298
6.75614e-301
4.21948e-299
2.49468e-299
3.70554e-300
-4.87354e-300
-8.194e-300
-6.4415e-300
2.38687e-299
-3.68362e-300
-3.12479e-299
1.63968e-299
-7.69338e-300
-3.52487e-299
-2.50185e-299
8.03985e-299
2.76822e-299
7.22099e-300
-2.14818e-299
-2.41133e-299
-2.07121e-299
4.33938e-300
1.41417e-299
6.09904e-300
-9.43581e-301
-2.82702e-300
-5.89973e-301
4.03355e-301
7.5781e-301
4.66995e-301
1.17856e-301
-2.26743e-301
-1.39644e-301
-3.05511e-302
1.38954e-302
-5.28226e-303
2.26011e-302
-2.54429e-303
-5.49165e-303
-1.95075e-303
1.4895e-303
1.13661e-303
-7.44333e-305
-2.33565e-304
-9.90762e-305
-1.83161e-305
1.22161e-305
-6.51307e-306
3.14553e-306
7.033e-306
0
-2.96439e-323
7.60367e-321
-6.35171e-320
9.59352e-319
-5.87406e-318
8.41639e-317
-1.2746e-315
4.93611e-315
-2.56536e-313
2.39088e-312
-3.26743e-311
2.27291e-310
-1.51352e-309
3.34639e-310
6.89317e-309
5.6168e-310
2.4769e-308
-2.36347e-307
1.15187e-306
8.45421e-306
-5.33686e-305
6.16306e-304
-7.97001e-303
1.23983e-301
-1.97708e-300
1.76702e-299
-1.15625e-298
7.88258e-298
-6.53782e-297
4.70945e-296
-3.92658e-295
2.54948e-294
-1.46179e-293
6.86527e-293
-1.52171e-292
6.42067e-292
3.02068e-292
-1.59976e-290
1.3366e-290
2.79848e-291
4.42664e-290
-4.31336e-289
2.37001e-289
-8.0144e-290
-3.58512e-289
1.97632e-287
-4.11743e-286
3.65781e-285
-2.43114e-284
4.57664e-284
1.10548e-284
-1.1891e-284
-1.58557e-284
-9.16555e-285
-2.0031e-285
-1.90363e-285
3.64537e-284
-1.59891e-284
-1.65062e-284
7.96242e-285
-9.18738e-284
-4.46689e-284
9.1493e-284
5.4859e-284
4.60715e-285
-1.13497e-284
-1.02034e-284
-9.15058e-285
1.43803e-285
4.76534e-285
3.30968e-285
-2.16087e-286
-6.41254e-286
-3.63001e-287
4.1113e-286
2.51834e-286
3.15654e-286
7.00592e-287
-1.16271e-286
-1.13391e-286
-3.76736e-287
2.11685e-288
7.10846e-288
3.3318e-289
1.10031e-287
-1.28061e-287
-5.08663e-289
9.4303e-289
1.60703e-288
2.47354e-289
-2.04647e-289
-1.39908e-289
-3.30563e-290
5.19073e-291
6.74435e-291
6.12504e-292
9.44353e-291
8.22432e-291
-1.04643e-290
-3.11124e-308
8.62942e-307
-8.43015e-306
1.2973e-304
-1.02778e-303
1.51153e-302
-2.28511e-301
1.57604e-300
-2.17975e-299
1.59276e-298
-2.14139e-297
1.26256e-296
-1.60283e-295
2.13314e-294
-1.95902e-294
9.37973e-294
-4.22809e-294
-2.25232e-293
2.46301e-292
-3.06505e-291
3.71535e-290
-7.88004e-290
8.01165e-289
-1.01253e-287
1.20676e-286
-1.37805e-285
-1.71474e-285
1.87615e-284
-1.18954e-283
6.77861e-283
-3.16113e-282
7.42151e-281
-6.20901e-280
4.86928e-279
-3.82693e-278
3.01802e-277
-8.68629e-278
-1.64266e-276
2.34605e-275
-1.42749e-275
2.1744e-276
-4.44683e-275
3.48687e-274
-2.32136e-273
3.86203e-274
2.43129e-273
-1.98297e-272
1.51247e-271
-1.00536e-270
4.21421e-270
-6.46368e-270
-7.88333e-270
-1.06198e-268
9.5229e-269
7.26824e-269
7.7594e-270
-2.67593e-269
-2.91359e-269
1.01022e-269
-1.08887e-268
-7.13664e-270
5.21021e-269
6.95979e-269
-1.24428e-268
2.85681e-269
-6.37958e-270
1.11711e-268
-7.52879e-270
-1.30457e-269
-3.13488e-269
2.28039e-269
1.54011e-270
-4.34046e-271
4.6807e-274
1.18539e-271
-5.69539e-273
2.01609e-271
-1.63797e-272
-7.07677e-272
-3.68365e-272
-1.29775e-273
2.98923e-273
4.39402e-274
-8.75912e-274
6.09313e-274
-1.28497e-272
6.2481e-273
4.53947e-273
1.25806e-273
-4.29734e-275
-2.18441e-274
4.01672e-274
-2.73491e-274
-1.46636e-274
-2.21605e-275
6.79355e-276
2.37239e-275
-1.2591e-276
-8.98791e-276
-3.5088e-276
5.48008e-293
-6.56096e-292
8.4267e-291
-1.12544e-289
1.45605e-288
-1.78762e-287
2.04368e-286
-2.09259e-285
1.72757e-284
-2.35278e-283
1.91098e-282
-2.50216e-281
3.32469e-280
-2.90505e-279
1.90377e-278
-1.3628e-278
4.55233e-278
-6.10555e-277
3.93392e-277
4.17472e-276
-4.06283e-275
4.52979e-274
-4.99014e-273
4.17739e-272
-3.09976e-271
1.89189e-270
-1.8425e-269
6.54518e-269
-5.76926e-268
5.33088e-267
-7.0386e-267
4.35761e-266
2.16272e-264
-1.52109e-263
6.03957e-263
-2.59357e-262
2.16218e-261
-6.18841e-261
2.71139e-260
-5.49515e-261
-2.33146e-260
9.12716e-261
-4.25297e-258
1.39427e-258
1.86038e-258
7.08815e-259
3.22097e-258
-1.98686e-257
1.02127e-256
-3.09077e-256
-8.32796e-256
2.11179e-254
-1.09296e-253
1.03654e-253
6.49031e-254
-1.14187e-254
-3.88542e-254
-5.5349e-254
-1.21251e-253
1.66846e-254
7.7981e-254
5.38363e-254
1.05497e-253
-5.25384e-254
-1.54191e-253
-3.81832e-254
7.6462e-254
6.71823e-254
2.75061e-254
-6.26322e-255
-1.88348e-254
-1.06836e-254
-8.93416e-256
2.48942e-255
1.29748e-255
3.78557e-256
-8.51508e-257
-7.22351e-257
-1.92736e-257
4.64846e-258
-1.30826e-258
-3.23718e-258
-2.41409e-257
-4.88631e-258
1.33387e-257
1.25916e-257
-1.38295e-257
1.975e-257
-1.05035e-258
-2.31088e-258
1.73443e-259
-5.40977e-259
-2.28818e-259
1.29529e-260
1.43927e-259
7.14181e-260
1.637e-261
-2.30206e-260
-1.11344e-260
9.25708e-262
7.31865e-280
2.25058e-277
-1.98699e-276
2.92988e-275
-4.42472e-274
6.56056e-273
-9.55747e-272
1.36753e-270
-1.9212e-269
1.50661e-268
-1.9664e-267
2.612e-266
-1.59882e-265
1.9283e-264
-2.41164e-263
2.9455e-262
-1.64963e-261
7.58669e-262
5.62516e-262
-8.98831e-262
1.15159e-260
-1.25047e-259
1.32619e-258
-1.37072e-257
1.37911e-256
-1.34903e-255
1.28116e-254
-1.17937e-253
5.47775e-253
-4.40568e-252
3.57602e-251
-2.75428e-250
-3.1229e-250
3.2236e-249
-2.37671e-248
1.80876e-247
-1.35497e-246
3.19704e-246
-2.563e-245
4.00125e-245
-3.28109e-244
4.71526e-244
3.15049e-243
-1.79122e-242
2.23398e-242
-4.80806e-242
1.38149e-241
-3.71087e-241
-2.52074e-241
6.48929e-242
1.17174e-240
-8.49066e-240
5.19208e-239
-1.33764e-239
-4.05879e-239
5.74397e-244
-5.94842e-239
6.0233e-240
1.95064e-239
2.1121e-238
1.07804e-240
-9.75082e-239
-9.29671e-239
-5.18755e-239
3.03697e-239
3.43656e-239
2.29458e-239
-1.36336e-240
-5.83867e-240
-6.43118e-240
-1.8979e-240
6.41636e-241
4.413e-241
3.29097e-241
1.78845e-241
8.07108e-242
2.63978e-242
1.59581e-243
-5.22348e-243
-3.91044e-243
-2.01334e-243
2.60702e-243
1.08682e-242
-2.20189e-242
-1.79666e-242
5.33382e-245
1.86391e-242
1.31439e-242
-6.24607e-244
-2.53992e-243
-1.15219e-243
-1.47659e-244
2.99087e-245
1.20717e-244
3.0585e-245
-6.81275e-246
-7.01308e-246
-1.76209e-246
2.41102e-246
-1.50489e-246
2.66476e-263
-1.89528e-262
2.12198e-261
-1.06676e-260
-1.65195e-259
6.00044e-258
-8.83484e-257
1.14157e-255
-1.28621e-254
1.72193e-253
-1.75689e-252
2.02413e-251
-2.28338e-250
2.12631e-249
-2.12481e-248
2.10543e-247
-1.96411e-246
1.39877e-245
-6.18456e-245
3.87105e-244
-3.08341e-243
2.26033e-242
-1.33637e-241
-4.87752e-241
2.46403e-241
2.93204e-240
-7.89377e-241
-5.65898e-239
9.09412e-238
-6.68572e-237
4.34709e-236
-2.61473e-235
1.8177e-234
-4.68968e-234
2.46987e-233
5.17942e-233
-7.58682e-232
4.81339e-231
-1.84325e-230
6.24201e-230
-2.35474e-229
5.87666e-229
-1.14769e-229
-3.18622e-228
1.44077e-228
-1.38841e-229
-4.32655e-227
-5.19392e-228
1.94493e-225
1.79237e-224
-2.68212e-224
-9.41696e-225
1.96662e-224
1.00908e-224
8.63392e-226
1.70953e-224
-1.63904e-224
-5.34154e-224
-2.94175e-224
2.87197e-224
5.29806e-224
1.91055e-224
-2.25065e-225
-1.97714e-224
-1.44717e-224
-6.0074e-225
3.70818e-225
4.16609e-225
2.54309e-225
4.04104e-226
-5.09088e-226
-1.57843e-226
-8.67616e-227
-3.87083e-226
-2.03676e-226
8.11278e-227
1.83898e-226
-5.34708e-227
-1.97838e-226
-1.15243e-227
-9.82625e-228
1.32826e-226
4.25915e-227
2.20328e-228
-1.36885e-227
-1.50359e-227
-1.57484e-228
3.24924e-228
2.07444e-228
7.16997e-229
7.45187e-230
-2.24087e-229
-1.21898e-229
-4.36326e-230
2.96489e-230
2.77161e-230
3.13556e-231
-6.75282e-231
-4.12826e-231
3.45612e-232
-2.58479e-248
1.61082e-247
-2.35139e-246
3.48709e-245
-3.82705e-244
9.62975e-245
2.21454e-242
-3.16294e-241
4.26896e-240
-5.93824e-239
5.12442e-238
-6.36693e-237
7.9486e-236
-9.70366e-235
9.23613e-234
-1.06528e-232
9.20754e-232
-1.00987e-230
5.39458e-230
-2.07929e-229
1.99387e-228
-2.01724e-227
1.97458e-226
1.17439e-225
-5.03221e-226
-1.81601e-225
1.10317e-224
-9.07633e-224
-1.86843e-223
1.78723e-222
-1.30117e-221
9.26424e-221
-1.65093e-219
4.41185e-219
-1.28332e-218
6.41824e-218
4.77443e-217
-2.50131e-216
6.6075e-216
-3.9017e-215
2.06389e-214
-6.40208e-214
7.4545e-214
-1.89326e-213
3.41881e-213
-3.05244e-213
-1.17359e-211
8.12741e-211
-1.45792e-211
-4.88282e-210
1.38212e-210
5.7715e-210
-1.16572e-210
-3.05243e-210
4.84947e-211
-2.85836e-209
-1.91429e-209
1.96015e-209
3.40853e-209
1.91105e-209
6.36323e-211
-1.36808e-209
-1.2317e-209
-4.51992e-210
-2.29101e-211
3.6251e-210
1.08247e-210
1.37709e-210
2.25529e-211
-6.76483e-212
1.28226e-211
-2.49096e-211
-2.68658e-211
2.31519e-212
7.24933e-212
-6.60124e-213
-8.97268e-212
-9.51917e-212
9.82262e-212
7.6666e-212
7.63655e-212
-1.87889e-212
-2.06837e-212
-1.2571e-212
-6.17645e-213
8.79379e-214
5.27002e-214
2.04666e-213
3.54975e-214
-1.00506e-214
-1.38237e-214
-3.05705e-215
5.36799e-217
2.79369e-215
1.78929e-215
-6.72711e-216
-5.21722e-216
-1.56817e-216
8.92204e-217
4.86382e-217
-2.86195e-233
2.5225e-232
-2.47753e-231
2.81059e-230
-3.97361e-229
4.5365e-228
-4.77235e-227
2.55445e-226
-6.30914e-226
-5.87387e-224
1.20317e-222
-1.00319e-221
5.58508e-221
-5.30034e-220
7.82321e-219
-6.66133e-218
4.42342e-217
-4.20287e-216
7.53235e-215
-4.60319e-214
3.73874e-213
-3.06848e-212
3.43729e-211
-2.6499e-210
2.3617e-209
-1.3346e-208
4.59938e-208
-1.99698e-208
2.55244e-206
-1.25087e-206
-7.36111e-206
2.31243e-205
-1.46547e-204
-2.44573e-204
3.36658e-203
-1.66529e-202
2.96034e-202
-1.08641e-201
2.24439e-201
1.01802e-201
4.06939e-200
-2.31782e-199
2.0299e-199
-3.52526e-199
3.76171e-198
-2.714e-197
9.40481e-197
-8.87158e-197
-1.68878e-195
8.19517e-195
-7.52121e-195
-1.32167e-194
3.36936e-195
2.03893e-194
8.04089e-195
-5.21813e-195
-1.03002e-194
-6.96167e-195
-8.75207e-196
2.10377e-195
5.60895e-195
1.28884e-195
8.95491e-196
-1.30205e-195
-2.32812e-195
2.00815e-195
-2.75231e-195
2.40815e-196
-2.91406e-196
-3.52023e-197
4.88043e-196
-3.72584e-197
-2.22507e-196
-7.12553e-197
1.33765e-196
1.17736e-196
-1.58062e-196
-6.96404e-197
1.08521e-196
-1.98766e-197
6.29475e-197
1.79972e-197
1.75664e-197
8.70057e-198
-6.39922e-198
-5.33655e-198
1.53584e-198
1.27254e-198
1.13011e-198
-1.83191e-199
-2.66778e-201
-9.75589e-200
-5.81272e-200
-6.11639e-201
2.2966e-200
1.13747e-200
7.50962e-202
-1.22885e-201
-5.73318e-202
9.28105e-204
-1.30967e-218
1.38274e-217
-1.61242e-216
2.27771e-215
-2.34399e-214
3.17286e-213
-4.28795e-212
5.6799e-211
-7.37564e-210
9.38489e-209
-1.16957e-207
1.42684e-206
2.28412e-206
-3.76832e-205
-5.31896e-204
6.45153e-203
-1.03875e-202
6.95627e-201
-7.52938e-200
1.60603e-199
-1.27817e-198
-1.222e-197
1.24459e-196
-3.42633e-197
-1.61224e-194
1.41515e-193
-7.41241e-193
5.63505e-192
-4.23988e-191
2.01364e-191
-5.13872e-191
4.33131e-190
-2.63626e-189
-4.07596e-189
2.31135e-188
-9.23823e-188
2.8624e-187
-9.46002e-188
-1.87742e-186
1.88126e-185
2.27063e-185
-1.14357e-184
-4.76218e-185
1.45926e-183
-1.22522e-182
3.48413e-182
-2.63544e-182
-1.20803e-181
1.61823e-180
-5.00292e-180
1.84842e-180
1.00248e-179
-3.96759e-181
-2.67357e-180
-5.25063e-180
-6.11767e-180
3.67846e-180
4.71727e-180
2.93663e-180
-5.76975e-180
1.29516e-180
3.94579e-180
-4.73084e-180
-5.44232e-180
-1.04313e-180
3.24416e-180
3.12222e-180
1.5654e-180
-2.32173e-181
-7.04968e-181
-5.92993e-181
-1.37434e-181
8.97385e-182
1.06835e-181
4.82742e-182
-3.0017e-181
4.48289e-181
-3.69195e-181
1.09966e-182
1.19168e-181
2.5062e-182
6.22653e-182
7.92661e-183
-2.37415e-182
-5.38564e-183
3.30329e-183
-1.08282e-183
-5.24147e-185
-9.33447e-184
2.42041e-184
2.68077e-184
7.78899e-185
-4.9821e-185
-2.26055e-185
-5.17818e-186
4.96295e-187
8.16047e-187
1.23605e-187
1.00362e-187
-3.723e-188
8.82252e-204
-9.06401e-203
1.29555e-201
-1.91877e-200
2.27768e-199
-3.98982e-198
5.34135e-197
-6.92917e-196
1.17498e-194
-1.09182e-193
1.79763e-192
-2.17474e-191
1.40898e-190
-2.15165e-189
1.82798e-188
-1.33879e-187
1.38929e-186
-8.98004e-186
1.33996e-184
-9.53423e-184
5.53385e-183
-4.97252e-182
2.41512e-181
-3.59431e-180
2.05888e-179
-8.98347e-179
6.77975e-178
-2.10862e-177
3.20415e-176
-1.29354e-175
3.08689e-175
6.93618e-175
-4.39023e-174
2.2894e-173
7.19137e-174
-2.74904e-173
2.53169e-174
5.33207e-172
-5.45104e-171
3.66629e-170
-8.36079e-170
1.37221e-170
3.94241e-170
-9.07758e-169
6.78316e-168
-5.2894e-168
-6.65944e-168
1.01849e-166
-7.06365e-166
2.64926e-165
1.27507e-165
-4.27452e-165
-3.92531e-165
-9.21563e-166
6.8879e-165
7.10773e-165
-3.18951e-165
-7.34545e-165
-6.28443e-165
1.95675e-165
4.62642e-165
4.51814e-165
1.10872e-165
-1.351e-165
-1.75231e-165
-9.5464e-166
-1.0326e-166
2.77056e-166
2.62809e-166
8.59179e-167
3.94906e-167
6.66647e-166
-2.90034e-166
-1.10646e-165
-1.17753e-166
7.20413e-166
6.29061e-166
-3.61132e-166
-1.75585e-166
-1.59302e-166
1.88326e-167
5.42507e-167
3.4612e-167
1.38655e-167
-3.27853e-168
-6.34247e-168
-2.38342e-168
1.01054e-168
7.43535e-169
2.739e-169
-4.72075e-170
-7.1474e-170
-1.58895e-170
-7.76671e-171
3.37043e-171
1.73646e-171
5.202e-173
-1.77307e-172
-7.4076e-173
-2.78819e-173
1.36918e-189
-1.27595e-188
-2.36933e-187
8.34501e-186
-2.12221e-184
3.71502e-183
-4.87773e-182
6.61607e-181
-8.77395e-180
1.10317e-178
-1.20982e-177
1.26912e-176
-1.3691e-175
1.36456e-174
-1.38238e-173
1.36267e-172
-1.21598e-171
1.04363e-170
-8.639e-170
7.52512e-169
-6.35041e-168
4.62338e-167
-3.57463e-166
2.32473e-165
-1.62943e-164
1.08787e-163
-6.76661e-163
4.02606e-162
-2.1962e-161
1.13579e-160
-5.67621e-160
2.52187e-159
-1.09204e-158
2.69808e-158
-8.29236e-158
1.71561e-157
-2.6083e-157
-7.07432e-157
6.50075e-156
-2.46729e-155
6.11537e-155
-1.22357e-154
1.90386e-155
1.39138e-153
-5.8064e-153
1.65392e-152
-1.0438e-152
-1.87923e-151
8.30759e-151
-9.36441e-151
-2.70766e-150
3.48372e-150
3.54082e-150
1.76367e-151
-3.01866e-150
-4.46177e-150
-2.29111e-150
1.95222e-150
2.80211e-150
2.6035e-150
1.70149e-150
-5.94156e-151
-2.14247e-151
-1.59427e-150
-2.28395e-150
-1.65689e-150
-7.97999e-151
2.41343e-150
4.24058e-150
5.61339e-151
-2.5493e-150
-2.38248e-150
-6.04353e-151
1.38917e-150
1.1314e-150
1.67078e-151
-3.86867e-151
-3.72636e-151
-1.0448e-151
5.42169e-152
7.98492e-152
3.23688e-152
-3.91218e-153
-9.3781e-153
-4.74007e-153
-2.59702e-154
9.41054e-154
5.31819e-154
8.36695e-155
-5.98402e-155
-3.96213e-155
-3.54223e-155
1.61529e-155
1.12204e-155
1.19384e-156
-1.24519e-156
-1.13368e-156
-1.60734e-157
1.98854e-157
9.65427e-158
-2.17034e-173
4.57457e-173
-5.29863e-172
7.16189e-171
-9.42267e-170
4.01128e-169
-4.55864e-168
5.63853e-167
-6.79266e-166
-1.21502e-164
1.53274e-163
-1.59284e-162
1.76581e-161
-2.09187e-160
2.22744e-159
-2.11363e-158
1.92887e-157
-1.6953e-156
1.42952e-155
-1.31484e-154
1.18064e-153
-8.98645e-153
7.50714e-152
-5.22898e-151
4.06437e-150
-3.06797e-149
1.84355e-148
-1.2654e-147
6.63545e-147
-3.02241e-146
1.76951e-145
-6.18648e-145
3.10868e-144
-7.98634e-144
3.16643e-143
-3.05786e-143
3.51188e-143
5.02409e-142
-2.57716e-141
1.16648e-140
-1.36514e-140
2.97119e-140
-2.0873e-140
-3.48274e-139
7.58553e-139
-2.37795e-138
2.57475e-138
3.66497e-137
-1.44505e-136
3.56299e-137
6.10638e-136
-3.90673e-136
-7.49977e-136
-1.31302e-136
-2.94072e-136
3.53341e-136
7.4656e-136
-1.20106e-136
7.76067e-136
4.31092e-136
-2.9215e-136
-3.34305e-136
-1.26365e-135
-8.26824e-136
1.94556e-136
6.60767e-136
2.27636e-135
1.21063e-135
-1.26036e-135
-1.70605e-135
-6.79052e-136
3.98027e-136
6.02362e-136
1.6732e-136
-1.12216e-136
-1.72421e-136
-7.16354e-137
5.40377e-138
2.96805e-137
1.71388e-137
2.4397e-138
-3.44514e-138
-2.37329e-138
-5.75186e-139
1.77552e-139
2.04843e-139
6.39914e-140
-8.62131e-141
-1.83437e-140
-5.99748e-141
-2.07564e-140
1.71398e-140
6.66647e-141
-4.54068e-142
-1.23994e-141
-4.10773e-142
3.3413e-143
7.72301e-143
2.58552e-143
-2.62104e-144
-1.88019e-158
1.77517e-157
1.01613e-156
-1.5501e-155
-1.83301e-154
2.55089e-153
-3.15057e-152
3.82298e-151
-4.53779e-150
-3.20796e-151
3.34483e-149
-3.55454e-148
3.86835e-147
-4.10195e-146
4.24019e-145
-4.26935e-144
4.18356e-143
-3.98599e-142
3.68884e-141
-3.31226e-140
2.88207e-139
-2.4268e-138
1.97444e-137
-1.54942e-136
1.1704e-135
-8.48999e-135
5.89751e-134
-3.90951e-133
2.46261e-132
-1.46572e-131
8.18018e-131
-3.10585e-130
1.45413e-129
-6.06543e-129
1.5436e-128
-2.33858e-128
-4.60391e-128
5.5804e-127
-2.08948e-126
8.8e-126
-6.1394e-126
8.1548e-126
2.8437e-125
-1.19683e-124
2.60815e-124
-1.306e-123
2.24896e-123
-1.00445e-122
5.04566e-122
4.21944e-122
-2.66303e-121
-1.23343e-122
3.49027e-121
3.25962e-121
-6.75548e-122
-4.93905e-121
-2.73057e-121
-1.16368e-120
4.81188e-122
6.51314e-121
2.12537e-120
8.80766e-121
3.92822e-121
-1.82009e-120
-2.42125e-120
-1.13404e-120
7.85003e-121
1.58891e-120
9.64045e-121
-2.02317e-121
-2.91499e-121
-1.49402e-121
1.07719e-122
6.39946e-122
3.9445e-122
4.38695e-123
-1.00699e-122
-8.00504e-123
-2.22544e-123
7.88584e-124
1.03892e-123
4.0709e-124
-1.41086e-125
-9.82582e-125
-4.85993e-125
-4.56633e-126
7.39649e-126
4.44828e-126
6.3917e-127
1.71168e-126
-3.16482e-125
3.36582e-124
-1.52668e-124
-1.38782e-124
-4.73823e-125
1.2108e-125
1.78461e-125
5.90742e-126
-1.99815e-126
-1.69688e-126
-1.0311e-142
7.67622e-142
-6.81668e-141
8.61508e-140
-9.26187e-139
1.0519e-137
-1.17396e-136
1.15541e-135
-1.19309e-134
1.19334e-133
-1.31386e-132
1.06484e-131
-7.08616e-131
7.09271e-130
-3.21919e-129
2.94775e-128
-1.76723e-127
1.58085e-126
-1.41827e-125
9.82779e-125
-6.06896e-124
3.15973e-123
-2.41547e-122
1.82679e-121
-5.94866e-121
-1.18409e-120
2.86613e-119
-1.84858e-118
1.10251e-117
-5.3041e-117
2.53924e-116
-1.10777e-115
3.75049e-115
-1.15973e-114
2.32068e-114
-2.00891e-114
-5.2612e-113
4.02783e-112
-1.84551e-111
6.17053e-111
-1.38294e-110
1.02811e-110
5.89189e-110
-2.28787e-109
6.29978e-109
-3.31343e-109
-3.39218e-108
1.34703e-107
-5.31961e-108
-3.6537e-107
9.47545e-107
6.37886e-107
-1.96357e-106
-2.18702e-106
6.01836e-107
5.41292e-106
3.91091e-106
-5.08068e-106
-1.24004e-105
-8.81023e-106
3.87417e-106
1.44769e-105
1.43358e-105
4.89012e-106
-4.30775e-106
-8.69499e-106
-6.33638e-106
-1.40638e-106
1.61914e-106
-2.57779e-106
1.34117e-106
1.17317e-105
-3.1143e-106
-6.4952e-106
-4.2236e-106
5.89328e-107
3.21843e-106
1.69109e-106
-5.29124e-107
-1.02444e-106
-6.76956e-107
3.46505e-107
7.58466e-107
1.99951e-107
-1.92548e-107
-2.19732e-107
-1.034e-107
2.98208e-108
4.29124e-108
1.58236e-108
-3.7594e-109
-5.87492e-109
-2.51301e-109
-5.80153e-110
8.52376e-110
5.10673e-110
6.55084e-111
-9.48051e-111
-5.3014e-111
-2.55985e-113
4.08682e-128
-3.6415e-127
3.0207e-126
-3.71886e-125
1.94348e-124
-2.20061e-123
2.6196e-122
-3.03929e-121
3.44617e-120
-7.24983e-119
8.01756e-118
-4.45342e-117
4.37002e-116
-4.38573e-115
2.56215e-114
-2.3452e-113
7.7939e-113
-6.35644e-112
5.56795e-111
-4.6798e-110
3.80446e-109
-2.98566e-108
2.25797e-107
-1.64233e-106
1.14624e-105
-4.40262e-105
1.67394e-104
1.48061e-104
-1.02689e-103
5.11545e-103
-2.52878e-102
1.11898e-101
-4.31238e-101
1.31497e-100
7.22479e-100
-2.18579e-101
1.1588e-98
-6.96738e-98
3.19962e-97
-1.13421e-96
2.82402e-96
-9.89377e-97
-1.27998e-95
4.151e-95
-4.84628e-95
-8.77048e-95
7.75945e-94
-2.77861e-93
2.50069e-93
2.00032e-92
-3.21251e-92
-5.0545e-92
5.10301e-92
9.58436e-92
3.11805e-92
-9.87344e-92
-1.48348e-91
-3.00872e-92
1.76575e-91
2.95595e-91
2.2505e-91
2.46006e-92
-1.57885e-91
-2.10768e-91
-1.68017e-91
-1.14324e-91
8.71152e-91
-6.88797e-91
-1.72002e-91
6.30419e-91
1.10295e-91
-6.66568e-91
-3.19105e-91
4.7066e-92
1.76238e-91
1.65684e-91
-3.4375e-92
-4.74003e-92
-1.52013e-92
1.05544e-92
6.40968e-92
2.92173e-92
-3.50694e-92
-2.87937e-92
-1.55507e-92
-7.86626e-94
6.12643e-93
3.89192e-93
4.82363e-94
-4.95836e-94
-4.94253e-94
-1.11455e-94
4.50257e-95
4.41453e-95
1.23242e-95
-3.51365e-96
-3.94135e-96
-1.16003e-96
1.47322e-97
2.03549e-97
-4.42984e-113
3.82877e-112
-5.93393e-111
6.00823e-110
-6.32976e-109
7.45851e-108
-6.27979e-107
6.98154e-106
-7.73175e-105
9.69761e-104
-8.97005e-103
7.84334e-102
-5.30652e-101
3.84478e-100
-2.54813e-99
3.11661e-98
-2.81859e-97
1.94469e-96
-8.52769e-96
6.61975e-95
-5.19672e-94
3.00742e-93
-1.65579e-92
5.68518e-92
-3.66271e-91
2.3611e-90
-1.29383e-89
6.63373e-89
-2.82149e-88
1.60417e-87
-7.48362e-87
3.13043e-86
-8.41235e-86
2.09353e-85
-2.89331e-85
-1.55736e-84
1.37205e-83
-5.49123e-83
1.85681e-82
-2.91914e-82
3.52506e-82
-3.26014e-83
-6.0932e-81
1.47097e-80
-1.07046e-80
-3.81785e-80
6.54986e-80
4.20643e-79
1.26597e-79
-6.10407e-78
2.98323e-78
1.56485e-77
-8.10745e-78
1.31685e-77
2.08804e-77
-5.29804e-77
-1.77771e-76
-1.01609e-76
2.38974e-76
5.41832e-76
2.9502e-76
-4.9132e-76
-1.08499e-75
-1.28002e-75
-1.6444e-77
1.10895e-75
1.29984e-75
8.37668e-76
-1.26665e-76
-7.34957e-76
-4.50511e-76
1.06147e-76
1.51856e-76
-1.12796e-76
-8.68841e-77
-1.42586e-76
7.17501e-77
9.66606e-77
1.21892e-76
4.1304e-77
-2.88718e-77
-4.45238e-77
-2.84834e-77
-3.03236e-78
7.089e-78
6.03076e-78
1.90499e-78
-4.73264e-79
-7.86355e-79
-3.45175e-79
-2.02969e-80
7.98903e-80
4.09478e-80
5.21502e-81
-5.75758e-81
-3.64989e-81
-4.81382e-82
2.9141e-82
2.42728e-82
2.35031e-83
-2.79924e-98
2.40738e-97
-3.15682e-96
3.89731e-95
-4.84936e-94
5.33353e-93
-5.84017e-92
6.04859e-91
-6.07491e-90
5.91847e-89
-5.81752e-88
5.57021e-87
-5.40692e-86
4.68324e-85
-3.68846e-84
2.90973e-83
-2.19565e-82
1.69719e-81
-1.26494e-80
7.41894e-80
-4.06621e-79
2.22023e-78
-1.28783e-77
6.93345e-77
-1.33436e-76
6.35601e-76
-3.55887e-75
1.71767e-74
-8.40173e-74
3.62798e-73
-1.32876e-72
4.46985e-72
-1.55386e-71
3.15337e-71
7.77633e-72
-4.8967e-70
2.8115e-69
-1.22216e-68
4.12881e-68
-9.64305e-68
7.0911e-68
4.43681e-67
-2.1126e-66
4.25986e-66
3.45139e-66
-4.47861e-65
1.11964e-64
-4.9714e-65
-6.10788e-64
1.4295e-63
8.25558e-64
-3.57246e-63
-5.86375e-63
6.51878e-63
2.98171e-62
1.537e-62
-7.70014e-62
-1.21314e-61
-6.73604e-62
1.43195e-61
2.7484e-61
2.09977e-61
-3.94503e-62
-2.61747e-61
-2.85039e-61
-2.32348e-61
7.20107e-62
3.86451e-61
3.57955e-62
-2.0725e-61
8.46377e-62
4.04423e-61
2.42746e-61
1.09693e-61
-1.65181e-61
-3.29738e-61
-2.56319e-61
-8.55552e-62
2.96581e-62
5.65493e-62
3.746e-62
1.01e-62
-4.94385e-63
-6.10564e-63
-2.80931e-63
-2.32732e-64
5.14905e-64
3.81256e-64
1.00932e-64
-2.85721e-65
-3.76841e-65
-1.36744e-65
6.25292e-67
2.88976e-66
1.25777e-66
4.04403e-68
-2.02955e-67
-9.75201e-68
-4.81357e-69
1.28857e-68
-2.91966e-84
2.36605e-83
-2.88302e-82
3.41605e-81
6.72177e-80
-8.20693e-79
9.04088e-78
-9.75884e-77
1.02739e-75
-1.05427e-74
1.05371e-73
-1.02491e-72
9.69326e-72
-8.9056e-71
7.94012e-70
-6.8625e-69
5.74262e-68
-4.64665e-67
3.63033e-66
-2.14874e-65
1.53788e-64
-1.0725e-63
7.15212e-63
-4.55867e-62
1.63208e-62
-4.61238e-62
3.36763e-61
-1.68839e-60
8.18036e-60
-3.63535e-59
1.46036e-58
-5.12367e-58
1.45339e-57
-2.50908e-57
-4.1483e-57
6.32454e-56
-3.51053e-55
1.36492e-54
-3.9019e-54
7.1119e-54
-4.55565e-55
-4.90732e-53
1.62594e-52
-8.04785e-53
-1.37109e-51
5.72946e-51
-6.80513e-51
-1.94043e-50
6.5878e-50
-4.14624e-50
-3.40643e-49
1.66886e-49
-1.24574e-49
2.04216e-48
-3.7043e-48
-5.92745e-48
1.72756e-48
1.72974e-47
2.62664e-47
7.73466e-48
3.21354e-47
-2.36275e-46
-5.20427e-47
4.22383e-47
1.73269e-46
1.54243e-46
9.79776e-47
-1.13523e-46
2.32149e-46
1.86422e-46
3.33178e-47
-1.22285e-46
-1.97311e-46
-1.56869e-46
-1.1712e-46
-4.2421e-47
2.78048e-49
2.20217e-47
1.65719e-47
5.81871e-48
-1.19015e-48
-1.42953e-48
-9.39084e-49
-3.19378e-49
1.42366e-50
8.27361e-50
4.62336e-50
8.60489e-51
-5.00519e-51
-4.48712e-51
-1.38505e-51
3.78177e-52
2.8588e-52
5.14182e-53
-3.38562e-53
-2.5699e-53
-8.34292e-54
4.48196e-54
2.15604e-54
-4.12317e-55
7.13829e-68
-5.59141e-67
4.26906e-66
-4.80949e-65
2.40922e-64
-2.49683e-63