/*--------------------------------*- C++ -*----------------------------------*\
  =========                 |
  \\      /  F ield         | OpenFOAM: The Open Source CFD Toolbox
   \\    /   O peration     | Website:  https://openfoam.org
    \\  /    A nd           | Version:  13
     \\/     M anipulation  |
\*---------------------------------------------------------------------------*/
FoamFile
{
    format      ascii;
    class       volScalarField;
    location    "3.4";
    object      T;
}
// * * * * * * * * * * * * * * * * * * * * * * * * * * * * * * * * * * * * * //

dimensions      [0 0 0 1 0 0 0];

internalField   nonuniform List<scalar> 
10000
(
-7.48721e-90
1.23325e-89
-8.56169e-89
4.63911e-88
-2.44657e-87
1.23801e-86
-6.00507e-86
2.78692e-85
-1.23443e-84
5.20211e-84
-2.0773e-83
7.81854e-83
-2.75391e-82
8.98581e-82
-2.67467e-81
7.07673e-81
-1.58078e-80
2.59114e-80
-1.1145e-80
-1.23764e-79
5.98954e-79
-1.64616e-78
2.62694e-78
5.84291e-79
-1.89858e-77
6.36172e-77
-9.70216e-77
-8.10757e-77
8.57038e-76
-2.06805e-75
6.68475e-76
1.07416e-74
-3.18249e-74
1.37775e-74
1.56994e-73
-4.23609e-73
-5.06602e-74
2.55325e-72
-4.24637e-72
-7.59644e-72
3.55083e-71
-6.16489e-72
-1.90187e-70
2.4488e-70
8.03584e-70
-2.00809e-69
-2.90608e-69
1.2411e-68
9.87273e-69
-6.82952e-68
-3.89916e-68
3.54471e-67
2.27957e-67
-1.74847e-66
-1.74167e-66
7.87544e-66
1.33123e-65
-2.86875e-65
-8.89061e-65
4.92743e-65
4.75091e-64
3.59904e-64
-1.70195e-63
-4.18698e-63
8.85967e-64
2.01699e-62
3.38137e-62
-1.98337e-62
-1.85895e-61
-3.32619e-61
-1.87535e-62
1.29719e-60
3.43914e-60
4.29699e-60
-8.70669e-61
-1.84053e-59
-5.30326e-59
-1.03673e-58
-1.60937e-58
-2.08783e-58
-2.30591e-58
-2.16901e-58
-1.70469e-58
-1.05492e-58
-4.12918e-59
6.01386e-60
2.93689e-59
3.15554e-59
2.14525e-59
8.64508e-60
-5.81772e-61
-4.3853e-60
-4.11109e-60
-2.16444e-60
-3.91364e-61
4.80061e-61
5.72921e-61
3.20368e-61
6.41739e-62
-6.10727e-62
2.92733e-88
-4.99317e-88
3.44047e-87
-1.8735e-86
9.91006e-86
-5.02837e-85
2.44485e-84
-1.13702e-83
5.04574e-83
-2.12994e-82
8.51831e-82
-3.21067e-81
1.13239e-80
-3.69964e-80
1.10262e-79
-2.92132e-79
6.53656e-79
-1.07462e-78
4.74101e-79
5.0844e-78
-2.47211e-77
6.81065e-77
-1.09048e-76
-2.29075e-77
7.83465e-76
-2.63312e-75
4.0296e-75
3.31504e-75
-3.54396e-74
8.57428e-74
-2.82273e-74
-4.44087e-73
1.31925e-72
-5.77373e-73
-6.49511e-72
1.75673e-71
2.0224e-72
-1.05748e-70
1.76262e-70
3.1413e-70
-1.47207e-69
2.59168e-70
7.88086e-69
-1.01637e-68
-3.32898e-68
8.32765e-68
1.20377e-67
-5.14547e-67
-4.09034e-67
2.83111e-66
1.61664e-66
-1.46928e-65
-9.45844e-66
7.24627e-65
7.22694e-65
-3.26276e-64
-5.52191e-64
1.18759e-63
3.68592e-63
-2.03226e-63
-1.96826e-62
-1.49609e-62
7.04194e-62
1.73558e-61
-3.60401e-62
-8.34688e-61
-1.40212e-60
8.14154e-61
7.68877e-60
1.37829e-59
8.43374e-61
-5.35655e-59
-1.42256e-58
-1.78095e-58
3.48788e-59
7.58875e-58
2.18941e-57
4.28208e-57
6.64882e-57
8.6265e-57
9.52805e-57
8.96236e-57
7.04323e-57
4.35764e-57
1.70437e-57
-2.50338e-58
-1.21493e-57
-1.30458e-57
-8.86492e-58
-3.56906e-58
2.44362e-59
1.81488e-58
1.69987e-58
8.94231e-59
1.61084e-59
-1.98918e-59
-2.36995e-59
-1.32396e-59
-2.64293e-60
2.52993e-60
-1.22716e-86
2.16996e-86
-1.48395e-85
8.12136e-85
-4.30869e-84
2.19216e-83
-1.06835e-82
4.97881e-82
-2.21348e-81
9.35908e-81
-3.74858e-80
1.41483e-79
-4.99647e-79
1.63441e-78
-4.87706e-78
1.29384e-77
-2.89967e-77
4.78055e-77
-2.15929e-77
-2.2414e-76
1.09471e-75
-3.02284e-75
4.85539e-75
9.63111e-76
-3.46872e-74
1.16915e-73
-1.79508e-73
-1.45471e-73
1.57217e-72
-3.8133e-72
1.27701e-72
1.96967e-71
-5.86622e-71
2.59377e-71
2.88271e-70
-7.8146e-70
-8.66468e-71
4.69832e-69
-7.84769e-69
-1.39357e-68
6.54628e-68
-1.16769e-68
-3.50304e-67
4.52472e-67
1.47937e-66
-3.70445e-66
-5.34892e-66
2.2883e-65
1.81787e-65
-1.25891e-64
-7.18993e-65
6.53286e-64
4.20955e-64
-3.22141e-63
-3.21656e-63
1.45004e-62
2.45687e-62
-5.27404e-62
-1.63919e-61
8.99309e-62
8.7473e-61
6.67021e-61
-3.12571e-60
-7.71719e-60
1.57357e-60
3.70554e-59
6.23649e-59
-3.58635e-59
-3.41164e-58
-6.12648e-58
-4.02903e-59
2.37309e-57
6.31257e-57
7.91798e-57
-1.49965e-57
-3.35717e-56
-9.69763e-56
-1.89752e-55
-2.94694e-55
-3.82395e-55
-4.2238e-55
-3.973e-55
-3.12202e-55
-1.93119e-55
-7.54779e-56
1.11757e-56
5.39171e-56
5.78623e-56
3.93013e-56
1.58085e-56
-1.10011e-57
-8.05749e-57
-7.54042e-57
-3.96363e-57
-7.1142e-58
8.84167e-58
1.05172e-57
5.86995e-58
1.16791e-58
-1.12423e-58
4.9961e-85
-9.20257e-85
6.24137e-84
-3.43464e-83
1.82816e-82
-9.32864e-82
4.55783e-81
-2.12879e-80
9.48275e-80
-4.01655e-79
1.6113e-78
-6.09042e-78
2.15375e-77
-7.05435e-77
2.10773e-76
-5.5993e-76
1.257e-75
-2.07844e-75
9.61479e-76
9.65255e-75
-4.73674e-74
1.31111e-73
-2.11292e-73
-3.93448e-74
1.5006e-72
-5.07307e-72
7.81567e-72
6.2342e-72
-6.81544e-71
1.65743e-70
-5.64825e-71
-8.53692e-70
2.54928e-69
-1.13912e-69
-1.25029e-68
3.39739e-68
3.61702e-69
-2.03998e-67
3.41488e-67
6.04137e-67
-2.84506e-66
5.14352e-67
1.52174e-65
-1.96871e-65
-6.42482e-65
1.6105e-64
2.32276e-64
-9.94561e-64
-7.89564e-64
5.47091e-63
3.12512e-63
-2.83876e-62
-1.83103e-62
1.3996e-61
1.39918e-61
-6.29786e-61
-1.06836e-60
2.28889e-60
7.1243e-60
-3.88841e-60
-3.79913e-59
-2.90664e-59
1.35582e-58
3.35354e-58
-6.70717e-59
-1.6076e-57
-2.71101e-57
1.5432e-57
1.47931e-56
2.66137e-56
1.87698e-57
-1.02731e-55
-2.73737e-55
-3.44036e-55
6.28512e-56
1.45112e-54
4.19717e-54
8.21637e-54
1.27634e-53
1.65638e-53
1.82967e-53
1.72102e-53
1.35229e-53
8.36304e-54
3.26607e-54
-4.87658e-55
-2.33828e-54
-2.50785e-54
-1.70259e-54
-6.84198e-55
4.84186e-56
3.49585e-55
3.26859e-55
1.71674e-55
3.06965e-56
-3.84075e-56
-4.56092e-56
-2.54312e-56
-5.04235e-57
4.88228e-57
-1.97127e-83
3.80458e-83
-2.55684e-82
1.41565e-81
-7.5621e-81
3.87116e-80
-1.89658e-79
8.87941e-79
-3.96371e-78
1.68204e-77
-6.75919e-77
2.55881e-76
-9.06176e-76
2.97214e-75
-8.8924e-75
2.36573e-74
-5.32025e-74
8.82405e-74
-4.18218e-74
-4.05717e-73
2.00094e-72
-5.55245e-72
8.97897e-72
1.55868e-72
-6.33766e-71
2.14934e-70
-3.32309e-70
-2.60677e-70
2.88472e-69
-7.03452e-69
2.44047e-69
3.61259e-68
-1.08178e-67
4.8866e-68
5.29472e-67
-1.44229e-66
-1.46927e-67
8.6488e-66
-1.45109e-65
-2.55715e-65
1.2074e-64
-2.21318e-65
-6.45488e-64
8.3648e-64
2.72455e-63
-6.83701e-63
-9.84898e-63
4.22099e-62
3.34859e-62
-2.3216e-61
-1.3264e-61
1.20452e-60
7.7774e-61
-5.93769e-60
-5.94338e-60
2.6709e-59
4.53652e-59
-9.69935e-59
-3.02357e-58
1.64132e-58
1.61118e-57
1.23695e-57
-5.74226e-57
-1.42301e-56
2.78822e-57
6.80984e-56
1.15077e-55
-6.48081e-56
-6.26292e-55
-1.1289e-54
-8.52233e-56
4.34185e-54
1.15899e-53
1.45966e-53
-2.56455e-54
-6.12329e-53
-1.77349e-52
-3.47348e-52
-5.39704e-52
-7.00494e-52
-7.73825e-52
-7.27868e-52
-5.71873e-52
-3.53586e-52
-1.37977e-52
2.07819e-53
9.90122e-53
1.06125e-52
7.20138e-53
2.89103e-53
-2.08165e-54
-1.48094e-53
-1.38337e-53
-7.25959e-54
-1.29288e-54
1.62911e-54
1.93119e-54
1.07573e-54
2.12511e-55
-2.07032e-55
7.52133e-82
-1.53221e-81
1.01929e-80
-5.68209e-80
3.04725e-79
-1.56542e-78
7.69235e-78
-3.61074e-77
1.61547e-76
-6.86924e-76
2.76537e-75
-1.04861e-74
3.71923e-74
-1.22164e-73
3.66029e-73
-9.75263e-73
2.19733e-72
-3.65613e-72
1.77607e-72
1.66342e-71
-8.24729e-71
2.2946e-70
-3.72401e-70
-5.97618e-71
2.61162e-69
-8.88635e-69
1.37901e-68
1.06283e-68
-1.19145e-67
2.91375e-67
-1.02952e-67
-1.49175e-66
4.47998e-66
-2.04648e-66
-2.18802e-65
5.97561e-65
5.80139e-66
-3.57835e-64
6.01801e-64
1.05619e-63
-5.00068e-63
9.29734e-64
2.67205e-62
-3.46871e-62
-1.12753e-61
2.83266e-61
4.07547e-61
-1.7483e-60
-1.38593e-60
9.61461e-60
5.49411e-60
-4.98786e-59
-3.22406e-59
2.45834e-58
2.46392e-58
-1.10542e-57
-1.87999e-57
4.01097e-57
1.25232e-56
-6.75959e-57
-6.66821e-56
-5.13779e-56
2.37323e-55
5.89288e-55
-1.12967e-55
-2.81498e-54
-4.76724e-54
2.65466e-54
2.58739e-53
4.67318e-53
3.77004e-54
-1.79052e-52
-4.78851e-52
-6.04383e-52
1.01779e-52
2.52094e-51
7.31185e-51
1.43281e-50
2.22684e-50
2.89066e-50
3.19345e-50
3.00377e-50
2.35981e-50
1.45871e-50
5.68736e-51
-8.64448e-52
-4.09123e-51
-4.38221e-51
-2.97215e-51
-1.19193e-51
8.73745e-53
6.12215e-52
5.71322e-52
2.99547e-52
5.31228e-53
-6.74363e-53
-7.97944e-53
-4.44006e-53
-8.73765e-54
8.56749e-54
-2.76739e-80
6.00603e-80
-3.95038e-79
2.21902e-78
-1.19525e-77
6.16399e-77
-3.03883e-76
1.43042e-75
-6.41552e-75
2.7339e-74
-1.10273e-73
4.18887e-73
-1.48814e-72
4.89556e-72
-1.46905e-71
3.92048e-71
-8.85031e-71
1.47754e-70
-7.35969e-71
-6.64814e-70
3.31469e-69
-9.24791e-69
1.50653e-68
2.21209e-69
-1.0494e-67
3.58315e-67
-5.58191e-67
-4.22254e-67
4.79902e-66
-1.17714e-65
4.23784e-66
6.00718e-65
-1.80954e-64
8.36214e-65
8.81803e-64
-2.41477e-63
-2.22385e-64
1.44393e-62
-2.4344e-62
-4.2543e-62
2.02006e-61
-3.81097e-62
-1.07882e-60
1.40301e-60
4.551e-60
-1.14469e-59
-1.64477e-59
7.06276e-59
5.59452e-59
-3.88357e-58
-2.21963e-58
2.0145e-57
1.30361e-57
-9.927e-57
-9.9631e-57
4.46211e-56
7.59901e-56
-1.61765e-55
-5.05905e-55
2.71446e-55
2.69165e-54
2.08165e-54
-9.56564e-54
-2.38014e-53
4.45748e-54
1.13484e-52
1.92623e-52
-1.05994e-52
-1.04245e-51
-1.88676e-51
-1.62424e-52
7.20035e-51
1.92943e-50
2.44076e-50
-3.9244e-51
-1.01197e-49
-2.9396e-49
-5.76347e-49
-8.95989e-49
-1.16324e-48
-1.28517e-48
-1.20883e-48
-9.49586e-49
-5.86836e-49
-2.28598e-49
3.50771e-50
1.64866e-49
1.76468e-49
1.19622e-49
4.79195e-50
-3.5784e-51
-2.46827e-50
-2.30103e-50
-1.20531e-50
-2.12805e-51
2.7226e-51
3.21536e-51
1.78716e-51
3.50271e-52
-3.45789e-52
9.78318e-79
-2.28948e-78
1.48677e-77
-8.42373e-77
4.55954e-76
-2.36144e-75
1.16836e-74
-5.51649e-74
2.48077e-73
-1.05963e-72
4.28298e-72
-1.63001e-71
5.80085e-71
-1.91145e-70
5.74508e-70
-1.5358e-69
3.47413e-69
-5.82036e-69
2.97398e-69
2.58836e-68
-1.29823e-67
3.6326e-67
-5.94094e-67
-7.87948e-68
4.10908e-66
-1.40817e-65
2.20253e-65
1.63349e-65
-1.88388e-64
4.63544e-64
-1.70114e-64
-2.35757e-63
7.12431e-63
-3.33175e-63
-3.46362e-62
9.51175e-62
8.26429e-63
-5.67903e-61
9.59939e-61
1.67009e-60
-7.95394e-60
1.52329e-60
4.24548e-59
-5.53172e-59
-1.79041e-58
4.50892e-58
6.46988e-58
-2.78112e-57
-2.20118e-57
1.52902e-56
8.74077e-57
-7.93053e-56
-5.13797e-56
3.90726e-55
3.92704e-55
-1.7556e-54
-2.99402e-54
6.35876e-54
1.99209e-53
-1.06219e-53
-1.059e-52
-8.22201e-53
3.75775e-52
9.37041e-52
-1.71159e-52
-4.45898e-51
-7.58643e-51
4.12239e-51
4.09337e-50
7.42502e-50
6.81203e-51
-2.82173e-49
-7.57688e-49
-9.60765e-49
1.46831e-49
3.95838e-48
1.15168e-47
2.25931e-47
3.51332e-47
4.56195e-47
5.04043e-47
4.74097e-47
3.72388e-47
2.30072e-47
8.95386e-48
-1.38762e-48
-6.47505e-48
-6.92563e-48
-4.69201e-48
-1.87739e-48
1.42908e-49
9.69896e-49
9.03207e-49
4.72644e-49
8.30561e-50
-1.07139e-49
-1.26276e-49
-7.01045e-50
-1.36812e-50
1.36031e-50
-3.30613e-77
8.47904e-77
-5.42714e-76
3.1052e-75
-1.68998e-74
8.79423e-74
-4.36824e-73
2.06943e-72
-9.3332e-72
3.99665e-71
-1.61906e-70
6.17429e-70
-2.20137e-69
7.26649e-69
-2.18776e-68
5.85892e-68
-1.32821e-67
2.2334e-67
-1.17117e-67
-9.80993e-67
4.95151e-66
-1.38976e-65
2.28223e-65
2.68917e-66
-1.56682e-64
5.39017e-64
-8.46637e-64
-6.14839e-64
7.20257e-63
-1.77809e-62
6.65495e-63
9.01127e-62
-2.7322e-61
1.29359e-61
1.32506e-60
-3.64965e-60
-2.9724e-61
2.17558e-59
-3.6874e-59
-6.38539e-59
3.0507e-58
-5.93369e-59
-1.62739e-57
2.12464e-57
6.86088e-57
-1.73007e-56
-2.47894e-56
1.06675e-55
8.43586e-56
-5.864e-55
-3.35288e-55
3.04111e-54
1.97266e-54
-1.49802e-53
-1.50784e-53
6.72808e-53
1.14911e-52
-2.43458e-52
-7.64094e-52
4.04745e-52
4.05843e-51
3.16375e-51
-1.43778e-50
-3.59344e-50
6.39022e-51
1.70645e-49
2.91052e-49
-1.56064e-49
-1.56547e-48
-2.8462e-48
-2.77977e-49
1.07689e-47
2.89797e-47
3.68385e-47
-5.32324e-48
-1.5077e-46
-4.39403e-46
-8.62521e-46
-1.34165e-45
-1.74237e-45
-1.92525e-45
-1.81085e-45
-1.42223e-45
-8.78444e-46
-3.41531e-46
5.34809e-47
2.47685e-46
2.64716e-46
1.79235e-46
7.16284e-47
-5.56173e-48
-3.71206e-47
-3.45291e-47
-1.80501e-47
-3.15609e-48
4.10676e-48
4.83009e-48
2.67822e-48
5.20298e-49
-5.21248e-49
1.06013e-75
-3.04763e-75
1.91871e-74
-1.11024e-73
6.07981e-73
-3.1806e-72
1.58677e-71
-7.54497e-71
3.41357e-70
-1.46577e-69
5.95234e-69
-2.27486e-68
8.12692e-68
-2.68761e-67
8.10646e-67
-2.17507e-66
4.94213e-66
-8.34231e-66
4.49167e-66
3.61657e-65
-1.83778e-64
5.17492e-64
-8.53472e-64
-8.73933e-65
5.81376e-63
-2.00818e-62
3.16818e-62
2.24986e-62
-2.68008e-61
6.63917e-61
-2.53551e-61
-3.35219e-60
1.01995e-59
-4.89094e-60
-4.93378e-59
1.36316e-58
1.03263e-59
-8.11239e-58
1.37886e-57
2.37608e-57
-1.13897e-56
2.25096e-57
6.07211e-56
-7.94389e-56
-2.55908e-55
6.46185e-55
9.24507e-55
-3.98296e-54
-3.1469e-54
2.18911e-53
1.25194e-53
-1.13515e-52
-7.37272e-53
5.59047e-52
5.63586e-52
-2.50979e-51
-4.29319e-51
9.07266e-51
2.85287e-50
-1.50074e-50
-1.51391e-49
-1.18518e-49
5.35427e-49
1.34139e-48
-2.3176e-49
-6.35623e-48
-1.08694e-47
5.74657e-48
5.827e-47
1.06198e-46
1.10309e-47
-3.99956e-46
-1.07878e-45
-1.37492e-45
1.86691e-46
5.58788e-45
1.63144e-44
3.20446e-44
4.98611e-44
6.47641e-44
7.15668e-44
6.73138e-44
5.2862e-44
3.26408e-44
1.26771e-44
-2.00683e-45
-9.22138e-45
-9.84743e-45
-6.66337e-45
-2.65946e-45
2.10793e-46
1.38279e-45
1.28472e-45
6.70848e-46
1.1668e-46
-1.53226e-46
-1.79816e-46
-9.95765e-47
-1.92518e-47
1.94414e-47
-3.18761e-74
1.06189e-73
-6.55916e-73
3.84524e-72
-2.12057e-71
1.116e-70
-5.5947e-70
2.67108e-69
-1.21266e-68
5.22274e-68
-2.12648e-67
8.14605e-67
-2.91638e-66
9.66386e-66
-2.9205e-65
7.8519e-65
-1.78839e-64
3.03105e-64
-1.67648e-64
-1.2959e-63
6.63267e-63
-1.87407e-62
3.10476e-62
2.67903e-63
-2.09762e-61
7.27672e-61
-1.15331e-60
-7.99691e-61
9.69864e-60
-2.41131e-59
9.40139e-60
1.21274e-58
-3.70352e-58
1.7995e-58
1.78667e-57
-4.9525e-57
-3.45666e-58
2.9422e-56
-5.01571e-56
-8.59878e-56
4.1362e-55
-8.31002e-56
-2.2037e-54
2.88927e-54
9.28417e-54
-2.34767e-53
-3.35357e-53
1.44653e-52
1.14181e-52
-7.94908e-52
-4.54702e-52
4.12141e-51
2.68041e-51
-2.02932e-50
-2.04911e-50
9.10633e-50
1.56023e-49
-3.28839e-49
-1.03608e-48
5.41055e-49
5.49287e-48
4.31921e-48
-1.93924e-47
-4.87051e-47
8.15713e-48
2.30268e-46
3.94842e-46
-2.05644e-46
-2.10938e-45
-3.85419e-45
-4.2542e-46
1.44447e-44
3.90559e-44
4.99141e-44
-6.32126e-45
-2.01362e-43
-5.89016e-43
-1.15772e-42
-1.80201e-42
-2.34102e-42
-2.58711e-42
-2.43334e-42
-1.9107e-42
-1.17944e-42
-4.57564e-43
7.32642e-44
3.33893e-43
3.56256e-43
2.40905e-43
9.60171e-44
-7.7748e-45
-5.00984e-44
-4.64869e-44
-2.42462e-44
-4.19344e-45
5.56072e-45
6.51052e-45
3.60039e-45
6.92541e-46
-7.05287e-46
8.80126e-73
-3.58209e-72
2.16395e-71
-1.28819e-70
7.16175e-70
-3.79458e-69
1.91268e-68
-9.17299e-68
4.18042e-67
-1.80634e-66
7.37567e-66
-2.83263e-65
1.01645e-64
-3.37536e-64
1.02217e-63
-2.75406e-63
6.28884e-63
-1.07041e-62
6.08502e-63
4.50937e-62
-2.32581e-61
6.59546e-61
-1.09785e-60
-7.62524e-62
7.35323e-60
-2.56247e-59
4.081e-59
2.75838e-59
-3.41062e-58
8.51203e-58
-3.39001e-58
-4.26342e-57
1.30704e-56
-6.438e-57
-6.28756e-56
1.74885e-55
1.11146e-56
-1.03707e-54
1.77344e-54
3.02394e-54
-1.45993e-53
2.98335e-54
7.77304e-53
-1.02144e-52
-3.27357e-52
8.29022e-52
1.18228e-51
-5.10608e-51
-4.02648e-51
2.80546e-50
1.60514e-50
-1.45437e-49
-9.47188e-50
7.15948e-49
7.24158e-49
-3.21122e-48
-5.51126e-48
1.15832e-47
3.65721e-47
-1.89514e-47
-1.93696e-46
-1.53015e-46
6.82562e-46
1.71882e-45
-2.7832e-46
-8.10686e-45
-1.39408e-44
7.14581e-45
7.4205e-44
1.35949e-43
1.59349e-44
-5.06891e-43
-1.37407e-42
-1.76117e-42
2.06144e-43
7.04949e-42
2.06625e-41
4.06418e-41
6.32817e-41
8.22255e-41
9.08763e-41
8.54742e-41
6.71079e-41
4.14105e-41
1.60463e-41
-2.60023e-42
-1.17488e-41
-1.25243e-41
-8.46318e-42
-3.36825e-42
2.78856e-43
1.76392e-42
1.6346e-42
8.51513e-43
1.46391e-43
-1.96135e-43
-2.29074e-43
-1.26498e-43
-2.42e-44
2.4867e-44
-2.13583e-71
1.16815e-70
-6.8737e-70
4.16729e-69
-2.33867e-68
1.24873e-67
-6.33303e-67
3.05259e-66
-1.39704e-65
6.05826e-65
-2.48144e-64
9.55626e-64
-3.43765e-63
1.14418e-62
-3.47264e-62
9.37779e-62
-2.1472e-61
3.67112e-61
-2.14613e-61
-1.52244e-60
7.91736e-60
-2.25382e-59
3.77029e-59
1.95502e-60
-2.50232e-58
8.76216e-58
-1.40256e-57
-9.22395e-58
1.16453e-56
-2.91809e-56
1.18781e-56
1.45525e-55
-4.47966e-55
2.2379e-55
2.1485e-54
-5.99754e-54
-3.41884e-55
3.54971e-53
-6.09003e-53
-1.03253e-52
5.00429e-52
-1.04071e-52
-2.66255e-51
3.50718e-51
1.12088e-50
-2.84308e-50
-4.0475e-50
1.75039e-49
1.37886e-49
-9.61551e-49
-5.50276e-49
4.98406e-48
3.2507e-48
-2.45294e-47
-2.48548e-47
1.09967e-46
1.89066e-46
-3.962e-46
-1.25369e-45
6.44366e-46
6.6329e-45
5.26528e-45
-2.33278e-44
-5.89069e-44
9.19487e-45
2.77139e-43
4.78016e-43
-2.40888e-43
-2.53465e-42
-4.65682e-42
-5.793e-43
1.72688e-41
4.69398e-41
6.03472e-41
-6.45515e-42
-2.39558e-40
-7.03674e-40
-1.38514e-39
-2.15755e-39
-2.80397e-39
-3.09924e-39
-2.91497e-39
-2.28833e-39
-1.41157e-39
-5.4629e-40
8.96443e-41
4.01411e-40
4.27498e-40
2.88664e-40
1.14708e-40
-9.71817e-42
-6.03064e-41
-5.58067e-41
-2.90337e-41
-4.95958e-42
6.7181e-42
7.82609e-42
4.31507e-42
8.20737e-43
-8.51411e-43
4.02566e-70
-3.67659e-69
2.09616e-68
-1.29925e-67
7.37226e-67
-3.97162e-66
2.02835e-65
-9.83233e-65
4.52098e-64
-1.96831e-63
8.08972e-63
-3.12478e-62
1.12709e-61
-3.76069e-61
1.1441e-60
-3.09716e-60
7.1119e-60
-1.2217e-59
7.34875e-60
4.98225e-59
-2.61406e-58
7.47182e-58
-1.25647e-57
-4.19958e-59
8.25895e-57
-2.90678e-56
4.67776e-56
2.98703e-56
-3.85728e-55
9.70671e-55
-4.04078e-55
-4.81856e-54
1.48971e-53
-7.55193e-54
-7.12227e-53
1.99576e-52
1.00035e-53
-1.17883e-51
2.0294e-51
3.42017e-51
-1.66441e-50
3.52463e-51
8.84897e-50
-1.16854e-49
-3.72371e-49
9.46078e-49
1.3444e-48
-5.82221e-48
-4.58135e-48
3.19774e-47
1.83044e-47
-1.65726e-46
-1.08255e-46
8.1543e-46
8.2779e-46
-3.65371e-45
-6.29359e-45
1.31479e-44
4.16999e-44
-2.12481e-44
-2.20379e-43
-1.7583e-43
7.73462e-43
1.95886e-42
-2.93747e-43
-9.19145e-42
-1.59041e-41
7.87008e-42
8.3989e-41
1.54772e-40
2.04242e-41
-5.70638e-40
-1.55559e-39
-2.00637e-39
1.93329e-40
7.8948e-39
2.32434e-38
4.57903e-38
7.13534e-38
9.27509e-38
1.02527e-37
9.64302e-38
7.569e-38
4.66725e-38
1.80385e-38
-2.99952e-39
-1.3305e-38
-1.41552e-38
-9.55069e-39
-3.78897e-39
3.28805e-40
2.00028e-39
1.84829e-39
9.60254e-40
1.62912e-40
-2.23268e-40
-2.59383e-40
-1.42784e-40
-2.69902e-41
2.82836e-41
-2.54226e-69
1.11464e-67
-6.114e-67
3.89476e-66
-2.23923e-65
1.21893e-64
-6.27522e-64
3.06143e-63
-1.41507e-62
6.18799e-62
-2.55282e-61
9.89302e-61
-3.5788e-60
1.19731e-59
-3.65185e-59
9.91167e-59
-2.28296e-58
3.94133e-58
-2.44089e-58
-1.57877e-57
8.36297e-57
-2.4008e-56
4.05952e-56
5.72705e-58
-2.64124e-55
9.34657e-55
-1.51257e-54
-9.35649e-55
1.23826e-53
-3.13004e-53
1.33343e-53
1.54629e-52
-4.80238e-52
2.4718e-52
2.28836e-51
-6.43812e-51
-2.76112e-52
3.79468e-50
-6.55631e-50
-1.09797e-49
5.36635e-49
-1.15789e-49
-2.85084e-48
3.77461e-48
1.19914e-47
-3.05197e-47
-4.32857e-47
1.87736e-46
1.47552e-46
-1.0309e-45
-5.90246e-46
5.34189e-45
3.49502e-45
-2.62772e-44
-2.67277e-44
1.17676e-43
2.03098e-43
-4.22908e-43
-1.34458e-42
6.7886e-43
7.09768e-42
5.69311e-42
-2.48561e-41
-6.3145e-41
9.06133e-42
2.95465e-40
5.12965e-40
-2.48936e-40
-2.69737e-39
-4.98633e-39
-6.97784e-40
1.82723e-38
4.99651e-38
6.46633e-38
-5.50796e-39
-2.52072e-37
-7.43965e-37
-1.46691e-36
-2.28679e-36
-2.97322e-36
-3.28692e-36
-3.09142e-36
-2.42617e-36
-1.49545e-36
-5.77156e-37
9.73206e-38
4.27423e-37
4.54248e-37
3.0623e-37
1.21275e-37
-1.07908e-38
-6.43067e-38
-5.9327e-38
-3.07773e-38
-5.18332e-39
7.19272e-39
8.3321e-39
4.57873e-39
8.59791e-40
-9.10763e-40
-2.6381e-67
-3.24765e-66
1.69715e-65
-1.11934e-64
6.53892e-64
-3.60347e-63
1.8724e-62
-9.2016e-62
4.27845e-61
-1.88012e-60
7.78864e-60
-3.02923e-59
1.09932e-58
-3.68853e-58
1.12812e-57
-3.07046e-57
7.09533e-57
-1.23143e-56
7.85681e-57
4.83883e-56
-2.58983e-55
7.4692e-55
-1.27033e-54
7.82617e-57
8.17602e-54
-2.91005e-53
4.73729e-53
2.83126e-53
-3.84861e-52
9.77476e-52
-4.26426e-52
-4.80414e-51
1.49928e-50
-7.83955e-51
-7.11894e-50
2.01139e-49
7.09319e-51
-1.18287e-48
2.05151e-48
3.41271e-48
-1.67561e-47
3.68623e-48
8.89427e-47
-1.18091e-46
-3.73944e-46
9.53502e-46
1.34958e-45
-5.86251e-45
-4.60199e-45
3.21855e-44
1.84326e-44
-1.66751e-43
-1.09283e-43
8.20038e-43
8.35818e-43
-3.67022e-42
-6.34757e-42
1.31721e-41
4.19868e-41
-2.09926e-41
-2.21367e-40
-1.78556e-40
7.73433e-40
1.97127e-39
-2.69457e-40
-9.19666e-39
-1.60233e-38
7.61459e-39
8.38754e-38
1.55571e-37
2.30806e-38
-5.66396e-37
-1.55388e-36
-2.01824e-36
1.48105e-37
7.78949e-36
2.30507e-35
4.54921e-35
7.09508e-35
9.227e-35
1.02015e-34
9.59467e-35
7.52883e-35
4.63866e-35
1.78753e-35
-3.05889e-36
-1.32949e-35
-1.41131e-35
-9.50585e-36
-3.75754e-36
3.43175e-37
2.00182e-36
1.84373e-36
9.54982e-37
1.59567e-37
-2.24396e-37
-2.5915e-37
-1.4215e-37
-2.65035e-38
2.84003e-38
1.89009e-65
9.06876e-65
-4.45154e-64
3.07288e-63
-1.83092e-62
1.02397e-61
-5.37878e-61
2.66564e-60
-1.24778e-59
5.51351e-59
-2.29461e-58
8.95987e-58
-3.26293e-57
1.09827e-56
-3.36901e-56
9.1973e-56
-2.13277e-55
3.7223e-55
-2.44832e-55
-1.43274e-54
7.75476e-54
-2.24759e-53
3.84618e-53
-1.05595e-54
-2.4471e-52
8.76383e-52
-1.4356e-51
-8.26473e-52
1.1569e-50
-2.95314e-50
1.32024e-50
1.44353e-49
-4.5282e-49
2.40688e-49
2.14205e-48
-6.07948e-48
-1.65519e-49
3.56675e-47
-6.2109e-47
-1.0259e-46
5.0616e-46
-1.1361e-46
-2.68439e-45
3.57462e-45
1.12806e-44
-2.88202e-44
-4.07038e-44
1.7711e-43
1.38846e-43
-9.72126e-43
-5.5688e-43
5.03567e-42
3.30605e-42
-2.47569e-41
-2.5288e-41
1.10736e-40
1.91934e-40
-3.96846e-40
-1.26842e-39
6.27618e-40
6.67882e-39
5.41894e-39
-2.32778e-38
-5.95347e-38
7.70996e-39
2.76881e-37
4.84221e-37
-2.24971e-37
-2.52256e-36
-4.69543e-36
-7.38434e-37
1.69771e-35
4.67395e-35
6.09394e-35
-3.71226e-36
-2.32707e-34
-6.90587e-34
-1.36427e-33
-2.1288e-33
-2.76915e-33
-3.06196e-33
-2.87977e-33
-2.25936e-33
-1.3914e-33
-5.35307e-34
9.30431e-35
3.99977e-34
4.24074e-34
2.85362e-34
1.12574e-34
-1.05655e-35
-6.0275e-35
-5.5416e-35
-2.86555e-35
-4.7474e-36
6.77233e-36
7.79588e-36
4.26787e-36
7.89663e-37
-8.56695e-37
-8.8872e-64
-2.41858e-63
1.09129e-62
-8.01926e-62
4.89961e-61
-2.79001e-60
1.48461e-59
-7.42986e-59
3.50474e-58
-1.55829e-57
6.51885e-57
-2.55665e-56
9.34637e-56
-3.15675e-55
9.71489e-55
-2.66076e-54
6.19316e-54
-1.08732e-53
7.3781e-54
4.09299e-53
-2.24255e-52
6.53415e-52
-1.12545e-51
5.61085e-53
7.07333e-51
-2.54999e-50
4.20476e-50
2.32374e-50
-3.35956e-49
8.62179e-49
-3.95298e-49
-4.1901e-48
1.32159e-47
-7.14546e-48
-6.2269e-47
1.77575e-46
3.3266e-48
-1.03919e-45
1.81728e-45
2.97925e-45
-1.47752e-44
3.38614e-45
7.82873e-44
-1.04574e-43
-3.28816e-43
8.41821e-43
1.18621e-42
-5.17054e-42
-4.04782e-42
2.83736e-41
1.6258e-41
-1.4695e-40
-9.6656e-41
7.22232e-40
7.39412e-40
-3.22841e-39
-5.60857e-39
1.15519e-38
3.70294e-38
-1.81198e-38
-1.94711e-37
-1.58962e-37
6.76859e-37
1.73748e-36
-2.11803e-37
-8.05382e-36
-1.4141e-35
6.41134e-36
7.32931e-35
1.36942e-34
2.28281e-35
-4.91495e-34
-1.35822e-33
-1.77806e-33
8.48522e-35
6.71288e-33
1.99824e-32
3.9518e-32
6.16955e-32
8.02758e-32
8.87744e-32
8.34911e-32
6.54923e-32
4.03132e-32
1.54823e-32
-2.73582e-33
-1.16254e-32
-1.23097e-32
-8.27485e-33
-3.25738e-33
3.14558e-34
1.75346e-33
1.60905e-33
8.30553e-34
1.36337e-34
-1.97501e-34
-2.26569e-34
-1.23777e-34
-2.27133e-35
2.49705e-35
3.50806e-62
6.13259e-62
-2.45429e-61
1.97601e-60
-1.2478e-59
7.26742e-59
-3.92796e-58
1.98858e-57
-9.46411e-57
4.23788e-56
-1.78319e-55
7.02789e-55
-2.58009e-54
8.7473e-54
-2.70147e-53
7.42494e-53
-1.73517e-52
3.06571e-52
-2.14769e-52
-1.12654e-51
6.25526e-51
-1.83298e-50
3.179e-50
-2.33495e-51
-1.972e-49
7.15987e-49
-1.18888e-48
-6.28207e-49
9.41315e-48
-2.42953e-47
1.1433e-47
1.17347e-46
-3.7228e-46
2.04888e-46
1.74666e-45
-5.00637e-45
-4.88027e-47
2.92197e-44
-5.13283e-44
-8.34783e-44
4.16283e-43
-9.74865e-44
-2.20354e-42
2.95315e-42
9.25009e-42
-2.37339e-41
-3.3362e-41
1.45694e-40
1.13889e-40
-7.99307e-40
-4.58125e-40
4.13891e-39
2.72769e-39
-2.03354e-38
-2.08693e-38
9.08377e-38
1.58193e-37
-3.24506e-37
-1.04338e-36
5.04529e-37
5.47844e-36
4.5019e-36
-1.89915e-35
-4.89414e-35
5.57203e-36
2.26061e-34
3.98601e-34
-1.7599e-34
-2.05478e-33
-3.85464e-33
-6.81146e-34
1.37259e-32
3.80838e-32
5.00719e-32
-1.68893e-33
-1.86744e-31
-5.57733e-31
-1.10426e-30
-1.72494e-30
-2.24508e-30
-2.48307e-30
-2.33526e-30
-1.83149e-30
-1.12676e-30
-4.31915e-31
7.7672e-32
3.2604e-31
3.4475e-31
2.31496e-31
9.09173e-32
-9.0459e-33
-4.92234e-32
-4.50782e-32
-2.32237e-32
-3.77427e-33
5.55889e-33
6.35369e-33
3.46333e-33
6.29864e-34
-7.02425e-34
-1.24162e-60
-1.46934e-60
4.88036e-60
-4.55108e-59
3.0071e-58
-1.80297e-57
9.93418e-57
-5.0992e-56
2.45219e-55
-1.10704e-54
4.68895e-54
-1.85818e-53
6.85396e-53
-2.33339e-52
7.2341e-52
-1.99587e-51
4.68446e-51
-8.33238e-51
6.0313e-51
2.98281e-50
-1.68068e-49
4.95508e-49
-8.65698e-49
8.51318e-50
5.29552e-48
-1.93742e-47
3.24094e-47
1.62979e-47
-2.54141e-46
6.59935e-46
-3.1902e-46
-3.16659e-45
1.01085e-44
-5.66727e-45
-4.72133e-44
1.3606e-43
3.05851e-47
-7.91864e-43
1.39767e-42
2.25386e-42
-1.13056e-41
2.70768e-42
5.97825e-41
-8.03997e-41
-2.5081e-40
6.4504e-40
9.0436e-40
-3.95734e-39
-3.08852e-39
2.1705e-38
1.24436e-38
-1.12368e-37
-7.42074e-38
5.51901e-37
5.67836e-37
-2.46354e-36
-4.30132e-36
8.78537e-36
2.83395e-35
-1.35299e-35
-1.48573e-34
-1.22934e-34
5.13515e-34
1.32885e-33
-1.39939e-34
-6.11495e-33
-1.08308e-32
4.64581e-33
5.55107e-32
1.04582e-31
1.95932e-32
-3.69268e-31
-1.02902e-30
-1.35919e-30
2.56441e-32
5.00287e-30
1.49956e-29
2.97269e-29
4.64636e-29
6.04933e-29
6.6915e-29
6.29306e-29
4.9345e-29
3.03407e-29
1.16066e-29
-2.12651e-30
-8.81159e-30
-9.3033e-30
-6.23974e-30
-2.44447e-30
2.50958e-31
1.33167e-30
1.21688e-30
6.25628e-31
1.00575e-31
-1.5081e-31
-1.71699e-31
-9.33667e-32
-1.6816e-32
1.9045e-32
4.04726e-59
3.29684e-59
-7.80554e-59
9.63493e-58
-6.80208e-57
4.23957e-56
-2.39347e-55
1.24939e-54
-6.08284e-54
2.77222e-53
-1.18309e-52
4.71761e-52
-1.74928e-51
5.98283e-51
-1.86267e-50
5.16045e-50
-1.21686e-49
2.18007e-49
-1.63185e-49
-7.58482e-49
4.34332e-48
-1.28899e-47
2.26963e-47
-2.82873e-48
-1.36768e-46
5.04522e-46
-8.50633e-46
-4.0487e-46
6.60207e-45
-1.72555e-44
8.57666e-45
8.22167e-44
-2.64206e-43
1.51015e-43
1.22808e-42
-3.55959e-42
3.51946e-44
2.06542e-41
-3.66408e-41
-5.85526e-41
2.95558e-40
-7.24579e-41
-1.56114e-39
2.10734e-39
6.5455e-39
-1.6876e-38
-2.35951e-38
1.0347e-37
8.06157e-38
-5.67346e-37
-3.25353e-37
2.93656e-36
1.94351e-36
-1.44178e-35
-1.48741e-35
6.43073e-35
1.12588e-34
-2.28905e-34
-7.40954e-34
3.48926e-34
3.87817e-33
3.23241e-33
-1.33618e-32
-3.4731e-32
3.34209e-33
1.59181e-31
2.83296e-31
-1.17737e-31
-1.44304e-30
-2.73118e-30
-5.42634e-31
9.55627e-30
2.67548e-29
3.5514e-29
-1.08243e-31
-1.28877e-28
-3.87814e-28
-7.69828e-28
-1.20404e-27
-1.56814e-27
-1.73485e-27
-1.63152e-27
-1.27903e-27
-7.85955e-28
-2.99993e-28
5.60672e-29
2.2916e-28
2.41558e-28
1.61809e-28
6.32185e-29
-6.70766e-30
-3.467e-29
-3.16078e-29
-1.62142e-29
-2.5757e-30
3.93812e-30
4.46486e-30
2.42164e-30
4.31553e-31
-4.97006e-31
-1.231e-57
-6.82919e-58
6.38006e-58
-1.81637e-56
1.42611e-55
-9.38649e-55
5.47003e-54
-2.9157e-53
1.44081e-52
-6.64001e-52
2.85853e-51
-1.14793e-50
4.28172e-50
-1.47195e-49
4.60411e-49
-1.28135e-48
3.03681e-48
-5.48257e-48
4.2477e-48
1.84887e-47
-1.07786e-46
3.22175e-46
-5.72017e-46
8.72096e-47
3.3919e-45
-1.26244e-44
2.14639e-44
9.60596e-45
-1.64771e-43
4.33661e-43
-2.21838e-43
-2.05071e-42
6.63719e-42
-3.87104e-42
-3.0692e-41
8.95125e-41
-1.84803e-42
-5.17715e-40
9.23412e-40
1.46137e-39
-7.42652e-39
1.86546e-39
3.91807e-38
-5.30985e-38
-1.64165e-37
4.24394e-37
5.91606e-37
-2.60029e-36
-2.02224e-36
1.42537e-35
8.17623e-36
-7.37595e-35
-4.89289e-35
3.62001e-34
3.74527e-34
-1.6133e-33
-2.83276e-33
5.73124e-33
1.86203e-32
-8.63975e-33
-9.72897e-32
-8.17185e-32
3.34067e-31
8.72461e-31
-7.55171e-32
-3.9816e-30
-7.12249e-30
2.85894e-30
3.60412e-29
6.85503e-29
1.44489e-29
-2.37517e-28
-6.68354e-28
-8.91868e-28
-1.23296e-29
3.18715e-27
9.63199e-27
1.9148e-26
2.99694e-26
3.90464e-26
4.32045e-26
4.06304e-26
3.18445e-26
1.95553e-26
7.44612e-27
-1.42152e-27
-5.72609e-27
-6.02541e-27
-4.03062e-27
-1.57014e-27
1.72478e-28
8.67327e-28
7.88737e-28
4.03634e-28
6.3286e-29
-9.88351e-29
-1.11552e-28
-6.03348e-29
-1.0628e-29
1.24648e-29
3.51779e-56
1.27284e-56
1.86082e-56
2.82634e-55
-2.71139e-54
1.93788e-53
-1.17912e-52
6.45555e-52
-3.24884e-51
1.51729e-50
-6.5988e-50
2.67152e-49
-1.00316e-48
3.46849e-48
-1.09052e-47
3.05014e-47
-7.26869e-47
1.32314e-46
-1.06206e-46
-4.31143e-46
2.56421e-45
-7.72414e-45
1.38366e-44
-2.51764e-45
-8.06346e-44
3.03038e-43
-5.19843e-43
-2.17023e-43
3.94409e-42
-1.04584e-41
5.51181e-42
4.9056e-41
-1.59994e-40
9.53056e-41
7.35763e-40
-2.16011e-39
6.93726e-41
1.24504e-38
-2.23355e-38
-3.49813e-38
1.79066e-37
-4.61341e-38
-9.4352e-37
1.28409e-36
3.95047e-36
-1.02419e-35
-1.42319e-35
6.2708e-35
4.86714e-35
-3.43629e-34
-1.97167e-34
1.77777e-33
1.18216e-33
-8.72142e-33
-9.05062e-33
3.88338e-32
6.83993e-32
-1.37664e-31
-4.4903e-31
2.05037e-31
2.34179e-30
1.98318e-30
-8.01183e-30
-2.10308e-29
1.60326e-30
9.55366e-29
1.71842e-28
-6.63758e-29
-8.6341e-28
-1.65092e-27
-3.69344e-28
5.65996e-27
1.60145e-26
2.14919e-26
6.8474e-28
-7.55315e-26
-2.29346e-25
-4.5666e-25
-7.15294e-25
-9.32311e-25
-1.03177e-24
-9.70279e-25
-7.60271e-25
-4.66535e-25
-1.77176e-25
3.46028e-26
1.37242e-25
1.44145e-25
9.62808e-26
3.73864e-26
-4.26005e-27
-2.08143e-26
-1.8877e-26
-9.63503e-27
-1.48904e-27
2.38005e-27
2.67336e-27
1.44156e-27
2.5071e-28
-2.99946e-28
-9.47958e-55
-2.01794e-55
-1.26788e-54
-2.69774e-54
4.46899e-53
-3.67339e-52
2.37851e-51
-1.34924e-50
6.9481e-50
-3.29783e-49
1.45164e-48
-5.93256e-48
2.2448e-47
-7.81194e-47
2.47031e-46
-6.94741e-46
1.66558e-45
-3.0589e-45
2.54644e-45
9.59618e-45
-5.83672e-44
1.77311e-43
-3.20669e-43
6.83914e-44
1.83397e-42
-6.96552e-42
1.20636e-41
4.65202e-42
-9.03821e-41
2.41601e-40
-1.31328e-40
-1.12338e-39
3.69431e-39
-2.24986e-39
-1.68878e-38
4.99354e-38
-2.21572e-39
-2.86756e-37
5.17613e-37
8.01642e-37
-4.13581e-36
1.09411e-36
2.17625e-35
-2.9752e-35
-9.10481e-35
2.36777e-34
3.27894e-34
-1.4486e-33
-1.12194e-33
7.93538e-33
4.55435e-33
-4.10431e-32
-2.73629e-32
2.01262e-31
2.09534e-31
-8.95314e-31
-1.58217e-30
3.16662e-30
1.03726e-29
-4.65469e-30
-5.39878e-29
-4.61207e-29
1.83983e-28
4.85599e-28
-3.16572e-29
-2.19506e-27