/*--------------------------------*- C++ -*----------------------------------*\
  =========                 |
  \\      /  F ield         | OpenFOAM: The Open Source CFD Toolbox
   \\    /   O peration     | Website:  https://openfoam.org
    \\  /    A nd           | Version:  13
     \\/     M anipulation  |
\*---------------------------------------------------------------------------*/
FoamFile
{
    format      ascii;
    class       volScalarField;
    location    "4.4";
    object      T;
}
// * * * * * * * * * * * * * * * * * * * * * * * * * * * * * * * * * * * * * //

dimensions      [0 0 0 1 0 0 0];

internalField   nonuniform List<scalar> 
10000
(
2.46968e-68
-9.78457e-69
1.14623e-67
-4.53155e-67
1.85432e-66
-6.89964e-66
2.29634e-65
-6.33392e-65
1.09177e-64
1.92681e-64
-3.15093e-63
2.01553e-62
-9.84867e-62
4.07815e-61
-1.47165e-60
4.62613e-60
-1.23615e-59
2.61371e-59
-3.32577e-59
-3.51149e-59
3.83356e-58
-1.35636e-57
2.84159e-57
-1.87857e-57
-1.18469e-56
5.4453e-56
-1.09014e-55
6.84529e-57
6.71155e-55
-2.04449e-54
1.62495e-54
8.23772e-54
-3.10468e-53
2.52709e-53
1.28858e-52
-4.27309e-52
9.84993e-53
2.31606e-51
-4.59861e-51
-5.9426e-51
3.49317e-50
-1.30254e-50
-1.79917e-49
2.63975e-49
7.43109e-49
-2.03176e-48
-2.65825e-48
1.22851e-47
9.153e-48
-6.69511e-47
-3.83142e-47
3.44983e-46
2.37724e-46
-1.681e-45
-1.83042e-45
7.37409e-45
1.36708e-44
-2.51778e-44
-8.79201e-44
2.92402e-44
4.44211e-43
4.30093e-43
-1.42212e-42
-4.09138e-42
-4.1615e-43
1.71088e-41
3.39564e-41
-4.34428e-42
-1.49888e-40
-3.16272e-40
-1.43367e-40
8.79492e-40
2.79044e-39
4.16243e-39
1.45718e-39
-1.02816e-38
-3.4968e-38
-7.21488e-38
-1.14916e-37
-1.51068e-37
-1.67795e-37
-1.57723e-37
-1.22911e-37
-7.42634e-38
-2.65907e-38
7.88383e-39
2.40314e-38
2.43104e-38
1.57466e-38
5.70223e-39
-1.17785e-39
-3.73492e-39
-3.21208e-39
-1.55309e-39
-1.65689e-40
4.55055e-40
4.67102e-40
2.36953e-40
3.01695e-41
-5.66007e-41
-2.14955e-67
8.79884e-68
-1.01294e-66
4.04213e-66
-1.67037e-65
6.31268e-65
-2.15697e-64
6.28507e-64
-1.30702e-63
-1.17963e-64
2.09986e-62
-1.50548e-61
7.67318e-61
-3.24924e-60
1.18946e-59
-3.77883e-59
1.01905e-58
-2.17728e-58
2.83635e-58
2.65631e-58
-3.12729e-57
1.12081e-56
-2.3731e-56
1.63966e-56
9.64862e-56
-4.50717e-55
9.11646e-55
-8.4077e-56
-5.53278e-54
1.70218e-53
-1.38317e-53
-6.7837e-53
2.58367e-52
-2.14101e-52
-1.06454e-51
3.56067e-51
-8.67774e-52
-1.9218e-50
3.84212e-50
4.89734e-50
-2.9082e-49
1.10752e-49
1.49551e-48
-2.2056e-48
-6.17074e-48
1.69362e-47
2.20607e-47
-1.02319e-46
-7.59836e-47
5.57414e-46
3.18741e-46
-2.8715e-45
-1.98238e-45
1.39861e-44
1.52727e-44
-6.12949e-44
-1.13997e-43
2.08757e-43
7.32232e-43
-2.37722e-43
-3.69197e-42
-3.60455e-42
1.17652e-41
3.40619e-41
3.86303e-42
-1.41627e-40
-2.82992e-40
3.14409e-41
1.23791e-39
2.63046e-39
1.23335e-39
-7.19919e-39
-2.30517e-38
-3.46458e-38
-1.2873e-38
8.31346e-38
2.85737e-37
5.91355e-37
9.43195e-37
1.2408e-36
1.37859e-36
1.29579e-36
1.00934e-36
6.09068e-37
2.16982e-37
-6.62812e-38
-1.98585e-37
-2.00315e-37
-1.29434e-37
-4.65978e-38
1.00008e-38
3.09198e-38
2.64857e-38
1.27512e-38
1.31039e-39
-3.78411e-39
-3.85936e-39
-1.94854e-39
-2.40828e-40
4.70254e-40
2.72891e-66
-1.13902e-66
1.29785e-65
-5.20775e-65
2.16443e-64
-8.25297e-64
2.86131e-63
-8.57879e-63
1.93632e-62
-1.06048e-62
-2.16712e-61
1.71825e-60
-9.04418e-60
3.89218e-59
-1.43919e-58
4.6055e-58
-1.24968e-57
2.68863e-57
-3.55606e-57
-3.06156e-57
3.80796e-56
-1.37666e-55
2.93533e-55
-2.08562e-55
-1.17355e-54
5.54223e-54
-1.12864e-53
1.25878e-54
6.7849e-53
-2.10122e-52
1.73215e-52
8.31297e-52
-3.18839e-51
2.67322e-51
1.30732e-50
-4.39792e-50
1.11027e-50
2.36705e-49
-4.75392e-49
-6.00424e-49
3.58994e-48
-1.38613e-48
-1.84415e-47
2.72916e-47
7.60416e-47
-2.09239e-46
-2.7174e-46
1.2634e-45
9.36122e-46
-6.88109e-45
-3.9324e-45
3.5442e-44
2.44961e-44
-1.72579e-43
-1.888e-43
7.55863e-43
1.40869e-42
-2.57004e-42
-9.04108e-42
2.88822e-42
4.55244e-41
4.46899e-41
-1.4463e-40
-4.20471e-40
-5.09305e-41
1.74171e-39
3.49577e-39
-3.49579e-40
-1.52001e-38
-3.24503e-38
-1.55497e-38
8.78667e-38
2.83093e-37
4.27621e-37
1.64973e-37
-1.00611e-36
-3.48327e-36
-7.22387e-36
-1.15328e-35
-1.51789e-35
-1.68678e-35
-1.58544e-35
-1.23458e-35
-7.44341e-36
-2.6426e-36
8.23482e-37
2.43929e-36
2.45579e-36
1.58421e-36
5.68072e-37
-1.25047e-37
-3.80261e-37
-3.24859e-37
-1.55946e-37
-1.56122e-38
4.6677e-38
4.74012e-38
2.38563e-38
2.88841e-39
-5.79712e-39
-3.36479e-65
1.43162e-65
-1.61497e-64
6.51538e-64
-2.72295e-63
1.04711e-62
-3.6799e-62
1.13182e-61
-2.72943e-61
2.80102e-61
2.05684e-60
-1.88057e-59
1.0292e-58
-4.51211e-58
1.68721e-57
-5.44231e-57
1.48666e-56
-3.22224e-56
4.32991e-56
3.39141e-56
-4.49537e-55
1.64051e-54
-3.52415e-54
2.577e-54
1.38369e-53
-6.6124e-53
1.35634e-52
-1.78933e-53
-8.07142e-52
2.51737e-51
-2.1067e-51
-9.88155e-51
3.81862e-50
-3.24127e-50
-1.55759e-49
5.27215e-49
-1.38002e-49
-2.82912e-48
5.70963e-48
7.1408e-48
-4.30092e-47
1.68495e-47
2.2069e-46
-3.27804e-46
-9.09334e-46
2.50904e-45
3.2481e-45
-1.51408e-44
-1.11914e-44
8.24428e-44
4.70819e-44
-4.24561e-43
-2.93787e-43
2.06674e-42
2.26534e-42
-9.04593e-42
-1.68958e-41
3.07033e-41
1.08346e-40
-3.4016e-41
-5.44777e-40
-5.37886e-40
1.7251e-39
5.03758e-39
6.51439e-40
-2.07833e-38
-4.19131e-38
3.69769e-39
1.81077e-37
3.88515e-37
1.90438e-37
-1.03995e-36
-3.37305e-36
-5.12255e-36
-2.05385e-36
1.17974e-35
4.11719e-35
8.55788e-35
1.36765e-34
1.80096e-34
2.0018e-34
1.88148e-34
1.46462e-34
8.82204e-35
3.12029e-35
-9.93338e-36
-2.90704e-35
-2.92062e-35
-1.88072e-35
-6.71487e-36
1.51847e-36
4.5377e-36
3.86546e-36
1.84977e-36
1.79863e-37
-5.58778e-37
-5.64848e-37
-2.83305e-37
-3.35295e-38
6.93542e-38
4.04519e-64
-1.75298e-64
1.95875e-63
-7.94313e-63
3.33701e-62
-1.29339e-61
4.60178e-61
-1.44734e-60
3.68141e-60
-5.11438e-60
-1.75322e-59
1.98251e-58
-1.13684e-57
5.08913e-57
-1.92636e-56
6.26683e-56
-1.72401e-55
3.76552e-55
-5.14202e-55
-3.62829e-55
5.17089e-54
-1.90582e-53
4.12589e-53
-3.10497e-53
-1.58951e-52
7.69137e-52
-1.58951e-51
2.43015e-52
9.35981e-51
-2.94078e-50
2.49914e-50
1.14495e-49
-4.45943e-49
3.83322e-49
1.80911e-48
-6.16285e-48
1.67258e-48
3.29683e-47
-6.68725e-47
-8.27813e-47
5.02436e-46
-1.99791e-46
-2.5751e-45
3.83963e-45
1.06024e-44
-2.93384e-44
-3.78533e-44
1.76933e-43
1.30446e-43
-9.63165e-43
-5.4962e-43
4.9592e-42
3.43568e-42
-2.4134e-41
-2.65049e-41
1.05561e-40
1.97607e-40
-3.5764e-40
-1.26609e-39
3.90333e-40
6.35667e-39
6.31358e-39
-2.00612e-38
-5.8852e-38
-8.10822e-39
2.41793e-37
4.90028e-37
-3.7273e-38
-2.10299e-36
-4.53569e-36
-2.27487e-36
1.19949e-35
3.91808e-35
5.98368e-35
2.49306e-35
-1.3472e-34
-4.74215e-34
-9.88062e-34
-1.58075e-33
-2.08272e-33
-2.3155e-33
-2.17627e-33
-1.69352e-33
-1.01906e-33
-3.58995e-34
1.16864e-34
3.37753e-34
3.38591e-34
2.17625e-34
7.73453e-35
-1.79855e-35
-5.27929e-35
-4.48368e-35
-2.13852e-35
-2.01438e-36
6.52256e-36
6.56194e-36
3.27937e-36
3.787e-37
-8.09032e-37
-4.73885e-63
2.09001e-63
-2.31431e-62
9.43117e-62
-3.9817e-61
1.55462e-60
-5.5938e-60
1.79441e-59
-4.76914e-59
7.98404e-59
1.23336e-58
-2.00517e-57
1.21727e-56
-5.57971e-56
2.14051e-55
-7.0273e-55
1.94765e-54
-4.28816e-54
5.95219e-54
3.73814e-54
-5.7917e-53
2.15707e-52
-4.70747e-52
3.64597e-52
1.77781e-51
-8.71673e-51
1.81542e-50
-3.16701e-51
-1.05737e-49
3.34779e-49
-2.88998e-49
-1.29232e-48
5.07491e-48
-4.419e-48
-2.04716e-47
7.02053e-47
-1.97555e-47
-3.74354e-46
7.63333e-46
9.3485e-46
-5.71988e-45
2.30951e-45
2.928e-44
-4.38328e-44
-1.20459e-43
3.3433e-43
4.29844e-43
-2.01497e-42
-1.48152e-42
1.09658e-41
6.25202e-42
-5.64515e-41
-3.91541e-41
2.7464e-40
3.02218e-40
-1.20042e-39
-2.25233e-39
4.05941e-39
1.44182e-38
-4.36117e-39
-7.22801e-38
-7.22289e-38
2.2731e-37
6.70035e-37
9.8168e-38
-2.74095e-36
-5.58343e-36
3.54554e-37
2.3796e-35
5.16019e-35
2.64902e-35
-1.34744e-34
-4.43424e-34
-6.8116e-34
-2.94894e-34
1.49715e-33
5.31896e-33
1.11109e-32
1.77962e-32
2.34609e-32
2.60895e-32
2.45199e-32
1.90738e-32
1.14654e-32
4.02186e-33
-1.34015e-33
-3.82334e-33
-3.82405e-33
-2.45301e-33
-8.67584e-34
2.07667e-34
5.98466e-34
5.06674e-34
2.4082e-34
2.19088e-35
-7.41961e-35
-7.42724e-35
-3.69777e-35
-4.15806e-36
9.19669e-36
5.40551e-62
-2.42465e-62
2.66182e-61
-1.08983e-60
4.62252e-60
-1.81723e-59
6.60652e-59
-2.15684e-58
5.94757e-58
-1.13221e-57
-4.9518e-58
1.93482e-56
-1.26136e-55
5.94057e-55
-2.31274e-54
7.66754e-54
-2.14189e-53
4.75523e-53
-6.71103e-53
-3.69422e-53
6.31154e-52
-2.37682e-51
5.2305e-51
-4.16934e-51
-1.93439e-50
9.6179e-50
-2.01927e-49
3.97078e-50
1.16277e-48
-3.71119e-48
3.25536e-48
1.41984e-47
-5.62383e-47
4.96229e-47
2.25519e-46
-7.78809e-46
2.27238e-46
4.13889e-45
-8.48571e-45
-1.02764e-44
6.34099e-44
-2.6008e-44
-3.24183e-43
4.87334e-43
1.33258e-42
-3.71023e-42
-4.75255e-42
2.23463e-41
1.63826e-41
-1.21578e-40
-6.92468e-41
6.25764e-40
4.34512e-40
-3.04345e-39
-3.35579e-39
1.32931e-38
2.50003e-38
-4.48655e-38
-1.59894e-37
4.74064e-38
8.00321e-37
8.0478e-37
-2.50772e-36
-7.42863e-36
-1.1555e-36
3.02525e-35
6.19541e-35
-3.12964e-36
-2.6214e-34
-5.71682e-34
-3.00484e-34
1.47299e-33
4.88575e-33
7.55106e-33
3.39673e-33
-1.61772e-32
-5.80507e-32
-1.21595e-31
-1.94996e-31
-2.57223e-31
-2.86116e-31
-2.68894e-31
-2.09089e-31
-1.25544e-31
-4.38387e-32
1.49691e-32
4.21362e-32
4.20425e-32
2.69127e-32
9.46937e-33
-2.33575e-33
-6.60545e-33
-5.57383e-33
-2.63947e-33
-2.31116e-34
8.21876e-34
8.18446e-34
4.05852e-34
4.43361e-35
-1.018e-34
-5.99917e-61
2.73502e-61
-2.97793e-60
1.22473e-59
-5.21765e-59
2.06438e-58
-7.57667e-58
2.51283e-57
-7.15021e-57
1.49626e-56
-4.36756e-57
-1.76617e-55
1.26244e-54
-6.13473e-54
2.42752e-53
-8.1336e-53
2.29108e-52
-5.13079e-52
7.36433e-52
3.48281e-52
-6.6862e-51
2.5476e-50
-5.65513e-50
4.63967e-50
2.0458e-49
-1.03237e-48
2.18563e-48
-4.79752e-49
-1.2437e-47
4.00298e-47
-3.56918e-47
-1.51719e-46
6.06385e-46
-5.42381e-46
-2.4166e-45
8.40667e-45
-2.54357e-45
-4.452e-44
9.17977e-44
1.09868e-43
-6.83993e-43
2.85109e-43
3.49227e-42
-5.27273e-42
-1.43426e-41
4.0066e-41
5.11216e-41
-2.41146e-40
-1.76243e-40
1.31161e-39
7.462e-40
-6.74959e-39
-4.69183e-39
3.2817e-38
3.62585e-38
-1.43232e-37
-2.70023e-37
4.82452e-37
1.72541e-36
-5.00918e-37
-8.62236e-36
-8.72645e-36
2.69148e-35
8.01413e-35
1.32149e-35
-3.24849e-34
-6.68943e-34
2.48064e-35
2.8092e-33
6.16271e-33
3.31769e-33
-1.5657e-32
-5.23679e-32
-8.14529e-32
-3.80713e-32
1.698e-31
6.15953e-31
1.29397e-30
2.07779e-30
2.74264e-30
3.05154e-30
2.86777e-30
2.22902e-30
1.33678e-30
4.64524e-31
-1.62734e-31
-4.51742e-31
-4.49593e-31
-2.87163e-31
-1.00483e-31
2.55724e-32
7.09283e-32
5.9643e-32
2.81337e-32
2.36136e-33
-8.8584e-33
-8.77351e-33
-4.33233e-33
-4.58557e-34
1.09642e-33
6.47248e-60
-2.99739e-60
3.23799e-59
-1.33742e-58
5.72158e-58
-2.27742e-57
8.43229e-57
-2.83661e-56
8.29311e-56
-1.8667e-55
1.50933e-55
1.50452e-54
-1.2175e-53
6.13708e-53
-2.4728e-52
8.38055e-52
-2.3816e-51
5.382e-51
-7.85866e-51
-3.10724e-51
6.8792e-50
-2.65397e-49
5.94461e-49
-5.02017e-49
-2.10103e-48
1.07709e-47
-2.30016e-47
5.59089e-48
1.29276e-46
-4.19765e-46
3.80583e-46
1.5754e-45
-6.35642e-45
5.76549e-45
2.5168e-44
-8.82242e-44
2.76843e-44
4.65511e-43
-9.65575e-43
-1.14145e-42
7.17312e-42
-3.04005e-42
-3.6573e-41
5.54712e-41
1.50064e-40
-4.2067e-40
-5.34533e-40
2.53006e-39
1.84298e-39
-1.3757e-38
-7.81657e-39
7.07807e-38
4.92533e-38
-3.44032e-37
-3.80891e-37
1.50042e-36
2.83557e-36
-5.04344e-36
-1.81021e-35
5.14043e-36
9.03116e-35
9.20096e-35
-2.80798e-34
-8.40583e-34
-1.46742e-34
3.39075e-33
7.02263e-33
-1.62774e-34
-2.92606e-32
-6.45886e-32
-3.56266e-32
1.61676e-31
5.4557e-31
8.54252e-31
4.14887e-31
-1.7295e-30
-6.34822e-30
-1.3378e-29
-2.15115e-29
-2.84145e-29
-3.1624e-29
-2.97185e-29
-2.3089e-29
-1.38293e-29
-4.78053e-30
1.72046e-30
4.70738e-30
4.67243e-30
2.97737e-30
1.0357e-30
-2.723e-31
-7.40331e-31
-6.20261e-31
-2.91369e-31
-2.33298e-32
9.28253e-32
9.14131e-32
4.49389e-32
4.59457e-33
-1.14803e-32
-6.78242e-59
3.18879e-59
-3.41883e-58
1.41794e-57
-6.09024e-57
2.43793e-56
-9.10038e-56
3.10105e-55
-9.28293e-55
2.21444e-54
-2.64371e-54
-1.16652e-53
1.12808e-52
-5.93895e-52
2.44192e-51
-8.37919e-51
2.4037e-50
-5.48352e-50
8.14801e-50
2.58972e-50
-6.8672e-49
2.68467e-48
-6.07012e-48
5.27693e-48
2.0932e-47
-1.09127e-46
2.35155e-46
-6.2874e-47
-1.30465e-45
4.27555e-45
-3.94331e-45
-1.58813e-44
6.47197e-44
-5.95521e-44
-2.54512e-43
8.9936e-43
-2.92738e-43
-4.72733e-42
9.86657e-42
1.1513e-41
-7.30697e-41
3.15024e-41
3.72012e-40
-5.66944e-40
-1.52491e-39
4.29053e-39
5.42804e-39
-2.57854e-38
-1.87162e-38
1.40162e-37
7.95219e-38
-7.21003e-37
-5.02212e-37
3.50333e-36
3.8867e-36
-1.52671e-35
-2.89253e-35
5.12087e-35
1.84482e-34
-5.11812e-35
-9.18819e-34
-9.42499e-34
2.84507e-33
8.56438e-33
1.58094e-33
-3.43729e-32
-7.16173e-32
6.28434e-34
2.95964e-31
6.57538e-31
3.7176e-31
-1.6203e-30
-5.51942e-30
-8.70285e-30
-4.3923e-30
1.70753e-29
6.34885e-29
1.34245e-28
2.16185e-28
2.8577e-28
3.18148e-28
2.98965e-28
2.32165e-28
1.38867e-28
4.77345e-29
-1.76733e-29
-4.76351e-29
-4.71474e-29
-2.99686e-29
-1.03591e-29
2.81759e-30
7.50462e-30
6.26325e-30
2.92926e-30
2.22462e-31
-9.44829e-31
-9.24913e-31
-4.52551e-31
-4.45335e-32
1.16759e-31
6.89624e-58
-3.29011e-58
3.50194e-57
-1.45818e-56
6.2868e-56
-2.5301e-55
9.51628e-55
-3.28108e-54
1.00283e-53
-2.50845e-53
3.7434e-53
7.78891e-53
-1.00039e-51
5.55064e-51
-2.33493e-50
8.12107e-50
-2.3531e-49
5.42141e-49
-8.20028e-49
-1.97003e-49
6.64416e-48
-2.63443e-47
6.01518e-47
-5.38357e-47
-2.02081e-46
1.07263e-45
-2.3332e-45
6.82391e-46
1.27707e-44
-4.22594e-44
3.9664e-44
1.55272e-43
-6.39443e-43
5.97147e-43
2.49666e-42
-8.89706e-42
3.0046e-42
4.6579e-41
-9.78501e-41
-1.12622e-40
7.22312e-40
-3.16958e-40
-3.67181e-39
5.62399e-39
1.50353e-38
-4.24692e-38
-5.34794e-38
2.55032e-37
1.84405e-37
-1.38583e-36
-7.8495e-37
7.12739e-36
4.9691e-36
-3.46205e-35
-3.84887e-35
1.50753e-34
2.86349e-34
-5.04534e-34
-1.82456e-33
4.93909e-34
9.07132e-33
9.37065e-33
-2.79688e-32
-8.46817e-32
-1.65116e-32
3.38081e-31
7.08812e-31
4.36432e-33
-2.9042e-30
-6.49614e-30
-3.76613e-30
1.57438e-29
5.41717e-29
8.60442e-29
4.51323e-29
-1.63211e-28
-6.15487e-28
-1.30617e-27
-2.1068e-27
-2.78714e-27
-3.10396e-27
-2.91669e-27
-2.26385e-27
-1.35213e-27
-4.61967e-28
1.76235e-28
4.67639e-28
4.61462e-28
2.92544e-28
1.00437e-28
-2.83047e-29
-7.3809e-29
-6.13491e-29
-2.85581e-29
-2.04279e-30
9.3326e-30
9.07878e-30
4.42e-30
4.16884e-31
-1.15233e-30
-6.79674e-57
3.289e-57
-3.47633e-56
1.45306e-55
-6.28739e-55
2.54316e-54
-9.6333e-54
3.35736e-53
-1.04527e-52
2.72002e-52
-4.70678e-52
-3.75342e-52
8.44803e-51
-5.0011e-50
2.15902e-49
-7.62101e-49
2.23194e-48
-5.19578e-48
8.00269e-48
1.30109e-48
-6.22322e-47
2.50509e-46
-5.77867e-46
5.32534e-46
1.88825e-45
-1.02175e-44
2.24441e-44
-7.14646e-45
-1.21117e-43
4.04904e-43
-3.86917e-43
-1.47073e-42
6.12434e-42
-5.80702e-42
-2.3732e-41
8.53257e-41
-2.99043e-41
-4.44837e-40
9.40868e-40
1.06732e-39
-6.92187e-39
3.09334e-39
3.51301e-38
-5.40931e-38
-1.43691e-37
4.07555e-37
5.10679e-37
-2.4454e-36
-1.76086e-36
1.32836e-35
7.50971e-36
-6.83047e-35
-4.76602e-35
3.31673e-34
3.69498e-34
-1.44308e-33
-2.74823e-33
4.8186e-33
1.74942e-32
-4.61445e-33
-8.68203e-32
-9.03356e-32
2.66492e-31
8.11741e-31
1.67024e-31
-3.22302e-30
-6.80139e-30
-1.47249e-31
2.76182e-29
6.22178e-29
3.70034e-29
-1.48151e-28
-5.15267e-28
-8.24755e-28
-4.49671e-28
1.50828e-27
5.77732e-27
1.23089e-26
1.98879e-26
2.63327e-26
2.93364e-26
2.75652e-26
2.13838e-26
1.27519e-26
4.3282e-27
-1.70423e-27
-4.44913e-27
-4.37637e-27
-2.76655e-27
-9.42885e-28
2.75776e-28
7.03584e-28
5.82289e-28
2.69703e-28
1.80148e-29
-8.93656e-29
-8.63641e-29
-4.18234e-29
-3.76198e-30
1.10247e-29
6.48571e-56
-3.1821e-56
3.34066e-55
-1.40151e-54
6.08534e-54
-2.47326e-53
9.43079e-53
-3.31948e-52
1.05069e-51
-2.82724e-51
5.44208e-51
-8.14341e-53
-6.7445e-50
4.33463e-49
-1.92777e-48
6.91613e-48
-2.04882e-47
4.82155e-47
-7.56474e-47
-6.41733e-48
5.63581e-46
-2.30569e-45
5.37592e-45
-5.102e-45
-1.70549e-44
9.42157e-44
-2.09088e-43
7.21877e-44
1.11165e-42
-3.75657e-42
3.65641e-42
1.34804e-41
-5.6797e-41
5.4707e-41
2.18341e-40
-7.92414e-40
2.88311e-40
4.11299e-39
-8.76177e-39
-9.7877e-39
6.42319e-38
-2.92524e-38
-3.25439e-37
5.03915e-37
1.32955e-36
-3.78767e-36
-4.721e-36
2.2707e-35
1.62773e-35
-1.23303e-34
-6.95558e-35
6.33898e-34
4.42622e-34
-3.07704e-33
-3.43505e-33
1.33768e-32
2.55427e-32
-4.45613e-32
-1.62437e-31
4.16872e-32
8.04642e-31
8.43474e-31
-2.45833e-30
-7.53534e-30
-1.63475e-30
2.9748e-29
6.32035e-29
2.38518e-30
-2.54246e-28
-5.77061e-28
-3.52236e-28
1.34852e-27
4.74443e-27
7.65587e-27
4.33967e-27
-1.34561e-26
-5.24421e-26
-1.12209e-25
-1.81639e-25
-2.4072e-25
-2.68282e-25
-2.52072e-25
-1.95433e-25
-1.16346e-25
-3.9208e-26
1.59648e-26
4.0976e-26
4.01692e-26
2.53163e-26
8.56007e-27
-2.60319e-27
-6.49325e-27
-5.34928e-27
-2.46443e-27
-1.52052e-28
8.28663e-28
7.95293e-28
3.82959e-28
3.26545e-29
-1.02135e-28
-5.98479e-55
2.9761e-55
-3.10397e-54
1.30686e-53
-5.69323e-53
2.32446e-52
-8.91874e-52
3.16809e-51
-1.0178e-50
2.81868e-50
-5.88189e-50
3.38633e-50
5.03429e-49
-3.60506e-48
1.65954e-47
-6.0615e-47
1.81785e-46
-4.32705e-46
6.91805e-46
4.81265e-48
-4.92794e-45
2.05154e-44
-4.83725e-44
4.72867e-44
1.48687e-43
-8.39943e-43
1.88411e-42
-7.0288e-43
-9.8616e-42
3.37069e-41
-3.34348e-41
-1.1941e-40
5.09417e-40
-4.98702e-40
-1.94186e-39
7.11773e-39
-2.68954e-39
-3.6773e-38
7.89287e-38
8.6742e-38
-5.76482e-37
2.67735e-37
2.91558e-36
-4.5413e-36
-1.18961e-35
3.40497e-35
4.21998e-35
-2.03942e-34
-1.45478e-34
1.10703e-33
6.22923e-34
-5.69007e-33
-3.97536e-33
2.76113e-32
3.08869e-32
-1.19933e-31
-2.29625e-31
3.9855e-31
1.45886e-30
-3.63684e-31
-7.21268e-30
-7.61892e-30
2.1929e-29
6.76594e-29
1.54644e-29
-2.6551e-28
-5.68129e-28
-3.09404e-29
2.26294e-27
5.17678e-27
3.24466e-27
-1.18576e-26
-4.22372e-26
-6.8741e-26
-4.05208e-26
1.15701e-25
4.59717e-25
9.88251e-25
1.60296e-24
2.12646e-24
2.37091e-24
2.22755e-24
1.72595e-24
1.02562e-24
3.42935e-25
-1.44707e-25
-3.64874e-25
-3.56397e-25
-2.23886e-25
-7.50524e-26
2.37795e-26
5.79457e-26
4.75051e-26
2.17602e-26
1.22284e-27
-7.43202e-27
-7.08074e-27
-3.38903e-27
-2.71937e-28
9.15142e-28
5.33323e-54
-2.6872e-54
2.78484e-53
-1.17656e-52
5.14195e-52
-2.10852e-51
8.13776e-51
-2.91531e-50
9.49299e-50
-2.69556e-49
5.9941e-49
-5.9118e-49
-3.44785e-48
2.86831e-47
-1.37493e-46
5.12297e-46
-1.55686e-45
3.75051e-45
-6.1128e-45
4.34526e-46
4.15417e-44
-1.76226e-43
4.20432e-43
-4.23435e-43
-1.24926e-42
7.23001e-42
-1.6401e-41
6.5916e-42
8.44397e-41
-2.9212e-40
2.95456e-40
1.02081e-39
-4.413e-39
4.39336e-39
1.6672e-38
-6.17562e-38
2.42463e-38
3.17496e-37
-6.86906e-37
-7.4187e-37
4.99758e-36
-2.36878e-36
-2.52274e-35
3.95416e-35
1.02792e-34
-2.95699e-34
-3.64245e-34
1.76941e-33
1.25541e-33
-9.60097e-33
-5.38688e-33
4.93383e-32
3.44835e-32
-2.39335e-31
-2.68265e-31
1.03868e-30
1.99409e-30
-3.44298e-30
-1.26565e-29
3.05961e-30
6.24511e-29
6.64911e-29
-1.88909e-28
-5.86858e-28
-1.4122e-28
2.28856e-27
4.9335e-27
3.54512e-28
-1.9448e-26
-4.48609e-26
-2.88869e-26
1.00577e-25
3.63071e-25
5.96253e-25
3.65614e-25
-9.57031e-25
-3.8861e-24
-8.39677e-24
-1.36496e-23
-1.81268e-23
-2.02197e-23
-1.8996e-23
-1.47085e-23
-8.72296e-24
-2.89175e-24
1.26752e-24
3.13716e-24
3.05243e-24
1.9108e-24
6.34567e-25
-2.09942e-25
-4.99368e-25
-4.07275e-25
-1.85404e-25
-9.31381e-27
6.43866e-26
6.08708e-26
2.89462e-26
2.16575e-27
-7.92028e-27
-4.58291e-53
2.33912e-53
-2.40907e-52
1.02123e-51
-4.47683e-51
1.84341e-50
-7.15416e-50
2.58328e-49
-8.51581e-49
2.47179e-48
-5.78681e-48
7.52296e-48
2.08746e-47
-2.17497e-46
1.09414e-45
-4.16852e-45
1.28505e-44
-3.13511e-44
5.21128e-44
-7.78253e-45
-3.37042e-43
1.45924e-42
-3.52467e-42
3.65827e-42
1.00979e-41
-5.99998e-41
1.37721e-40
-5.94782e-41
-6.96801e-40
2.44171e-39
-2.51963e-39
-8.40912e-39
3.68708e-38
-3.73514e-38
-1.37973e-37
5.16832e-37
-2.10952e-37
-2.64334e-36
5.76724e-36
6.1137e-36
-4.17882e-35
2.02317e-35
2.10518e-34
-3.3218e-34
-8.56512e-34
2.47726e-33
3.03141e-33
-1.48085e-32
-1.04448e-32
8.03201e-32
4.49156e-32
-4.12671e-31
-2.88471e-31
2.00116e-30
2.24741e-30
-8.67713e-30
-1.67043e-29
2.8688e-29
1.05919e-28
-2.47829e-29
-5.21578e-28
-5.59851e-28
1.56935e-27
4.91026e-27
1.24326e-27
-1.90232e-26
-4.13292e-26
-3.71873e-27
1.61151e-25
3.75002e-25
2.48218e-25
-8.21642e-25
-3.00914e-24
-4.98919e-24
-3.18353e-24
7.59896e-24
3.16255e-23
6.872e-23
1.11978e-22
1.48882e-22
1.66152e-22
1.56087e-22
1.20768e-22
7.14674e-23
2.34689e-23
-1.07142e-23
-2.60064e-23
-2.5199e-23
-1.57148e-23
-5.16543e-24
1.78896e-24
4.1499e-24
3.36588e-24
1.52202e-24
6.65907e-26
-5.38059e-25
-5.04531e-25
-2.38257e-25
-1.64296e-26
6.61175e-26
3.79133e-52
-1.95984e-52
2.00616e-51
-8.53234e-51
3.75147e-50
-1.55089e-49
6.05064e-49
-2.20103e-48
7.33786e-48
-2.17177e-47
5.30576e-47
-8.21213e-47
-1.01547e-46
1.56416e-45
-8.34421e-45
3.25971e-44
-1.0206e-43
2.52339e-43
-4.27974e-43
9.75213e-44
2.62698e-42
-1.16288e-41
2.84565e-41
-3.04467e-41
-7.83707e-41
4.79267e-40
-1.11383e-39
5.1578e-40
5.53233e-39
-1.96531e-38
2.07045e-38
6.66378e-38
-2.96642e-37
3.05994e-37
1.09881e-36
-4.16551e-36
1.76869e-36
2.11875e-35
-4.66418e-35
-4.84635e-35
3.36502e-34
-1.66568e-34
-1.69155e-33
2.68828e-33
6.87121e-33
-1.99897e-32
-2.42862e-32
1.19367e-31
8.36417e-32
-6.47163e-31
-3.60496e-31
3.32433e-30
2.32356e-30
-1.61153e-29
-1.81319e-29
6.98149e-29
1.3477e-28
-2.30204e-28
-8.53727e-28
1.92952e-28
4.19529e-27
4.54097e-27
-1.25529e-26
-3.95705e-26
-1.05365e-26
1.52253e-25
3.3349e-25
3.63079e-26
-1.28545e-24
-3.01918e-24
-2.05549e-24
6.45343e-24
2.40081e-23
4.02112e-23
2.67113e-23
-5.77759e-23
-2.47327e-22
-5.40789e-22
-8.83526e-22
-1.17622e-21
-1.31335e-21
-1.23371e-21
-9.53785e-22
-5.63084e-22
-1.82976e-22
8.72677e-23
2.0753e-22
2.0019e-22
1.24332e-22
4.04079e-23
-1.46912e-23
-3.32036e-23
-2.67712e-23
-1.20181e-23
-4.40686e-25
4.33051e-24
4.02552e-24
1.88678e-24
1.18099e-25
-5.31548e-25
-3.01407e-51
1.57776e-51
-1.60536e-50
6.84971e-50
-3.02033e-49
1.25342e-48
-4.91463e-48
1.80024e-47
-6.06428e-47
1.82635e-46
-4.62515e-46
8.08736e-46
2.50643e-46
-1.05988e-44
6.08249e-44
-2.44476e-43
7.78485e-43
-1.95218e-42
3.37993e-42
-1.03675e-42
-1.96287e-41
8.90247e-41
-2.20866e-40
2.43694e-40
5.82729e-40
-3.67824e-39
8.661e-39
-4.29249e-39
-4.21832e-38
1.5206e-37
-1.63663e-37
-5.07036e-37
2.29417e-36
-2.41151e-36
-8.40581e-36
3.22764e-35
-1.42675e-35
-1.6321e-34
3.62727e-34
3.68834e-34
-2.60501e-33
1.31978e-33
1.30647e-32
-2.09232e-32
-5.29775e-32
1.55102e-31
1.86965e-31
-9.25125e-31
-6.43526e-31
5.01349e-30
2.78008e-30
-2.5748e-29
-1.79884e-29
1.24778e-28
1.40635e-28
-5.40082e-28
-1.04541e-27
1.77595e-27
6.61621e-27
-1.44127e-27
-3.24435e-26
-3.54203e-26
9.65113e-26
3.06617e-25
8.58199e-26
-1.17126e-24
-2.58761e-24
-3.32759e-25
9.85339e-24
2.33719e-23
1.63769e-23
-4.86388e-23
-1.84067e-22
-3.11637e-22
-2.15615e-22
4.19412e-22
1.85494e-21
4.08423e-21
6.69211e-21
8.92161e-21
9.96761e-21
9.36251e-21
7.23177e-21
4.25824e-21
1.36759e-21
-6.83773e-22
-1.59138e-21
-1.5277e-21
-9.44569e-22
-3.03164e-22
1.16077e-22
2.55334e-22
2.0456e-22
9.11071e-23
2.63236e-24
-3.35106e-23
-3.08637e-23
-1.43489e-23
-7.98567e-25
4.10844e-24
2.29795e-50
-1.21803e-50
1.23197e-49
-5.2732e-49
2.3317e-48
-9.71226e-48
3.8264e-47
-1.41083e-46
4.7984e-46
-1.46796e-45
3.83372e-45
-7.34068e-45
2.275e-45
6.7033e-44
-4.22512e-43
1.75457e-42
-5.69135e-42
1.44877e-41
-2.562e-41
9.89032e-42
1.40268e-40
-6.53387e-40
1.6448e-39
-1.87228e-39
-4.14069e-39
2.70688e-38
-6.46273e-38
3.4229e-38
3.0825e-37
-1.12876e-36
1.24217e-36
3.69649e-36
-1.70224e-35
1.82486e-35
6.16414e-35
-2.39975e-34
1.10535e-34
1.20587e-33
-2.70746e-33
-2.68918e-33
1.93502e-32
-1.00459e-32
-9.68042e-32
1.56323e-31
3.91789e-31
-1.155e-30
-1.3803e-30
6.88082e-30
4.74723e-30
-3.72718e-29
-2.05579e-29
1.9138e-28
1.33585e-28
-9.27173e-28
-1.04663e-27
4.00953e-27
7.78197e-27
-1.31475e-26
-4.92063e-26
1.03077e-26
2.40764e-25
2.65194e-25
-7.11855e-25
-2.28012e-24
-6.70569e-25
8.64418e-24
1.92702e-23
2.87545e-24
-7.244e-23
-1.73633e-22
-1.25309e-22
3.5101e-22
1.35348e-21
2.31803e-21
1.67141e-21
-2.89679e-21
-1.33112e-20
-2.95387e-20
-4.85564e-20
-6.48341e-20
-7.24822e-20
-6.80765e-20
-5.25322e-20
-3.08426e-20
-9.77551e-21
5.14443e-21
1.17033e-20
1.11763e-20
6.87647e-21
2.17644e-21
-8.80802e-22
-1.88351e-21
-1.49862e-21
-6.617e-22
-1.34395e-23
2.48851e-22
2.26943e-22
1.04582e-22
5.02524e-24
-3.04715e-23
-1.6763e-49
8.99728e-50
-9.04611e-49
3.88416e-48
-1.7222e-47
7.19928e-47
-2.8494e-46
1.05714e-45
-3.62777e-45
1.12574e-44
-3.01958e-44
6.2047e-44
-4.67945e-44
-3.89922e-43
2.78665e-42
-1.20188e-41
3.97872e-41
-1.02912e-40
1.85992e-40
-8.66499e-41
-9.5605e-40
4.58695e-39
-1.1727e-38
1.37785e-38
2.80351e-38
-1.90582e-37
4.61768e-37
-2.61045e-37
-2.15368e-36
8.02123e-36
-9.03351e-36
-2.57594e-35
1.20912e-34
-1.32322e-34
-4.32316e-34
1.70833e-33
-8.20811e-34
-8.5266e-33
1.93554e-32
1.87381e-32
-1.3762e-31
7.33146e-32
6.86621e-31
-1.11881e-30
-2.77303e-30
8.23734e-30
9.75041e-30
-4.90098e-29
-3.34999e-29
2.65346e-28
1.45434e-28
-1.36222e-27
-9.49462e-28
6.59762e-27
7.45751e-27
-2.8506e-26
-5.54709e-26
9.32054e-26
3.50454e-25
-7.04232e-26
-1.71096e-24
-1.9018e-24
5.02645e-24
1.62383e-23
5.01616e-24
-6.10724e-23
-1.37447e-22
-2.34766e-23
5.09673e-22
1.23535e-21
9.18947e-22
-2.41955e-21
-9.52444e-21
-1.65141e-20
-1.24177e-20
1.8954e-20
9.11572e-20
2.04084e-19
3.36694e-19
4.50345e-19
5.0383e-19
4.73163e-19
3.64727e-19
2.13446e-19
6.66442e-20
-3.70884e-20
-8.23638e-20
-7.82067e-20
-4.78597e-20
-1.49123e-20
6.4057e-21
1.32992e-20
1.05029e-20
4.59347e-21
4.9507e-23
-1.76967e-21
-1.5969e-21
-7.28849e-22
-2.89179e-23
2.16409e-22
1.16691e-48
-6.34298e-49
6.33921e-48
-2.73039e-47
1.2139e-46
-5.09219e-46
2.02438e-45
-7.55505e-45
2.61448e-44
-8.21938e-44
2.25702e-43
-4.90827e-43
5.34359e-43
2.03252e-42
-1.73738e-41
7.83478e-41
-2.65271e-40
6.97954e-40
-1.28999e-39
7.04854e-40
6.19569e-39
-3.07217e-38
7.98499e-38
-9.68954e-38
-1.80246e-37
1.28046e-36
-3.1516e-36
1.89997e-36
1.43489e-35
-5.44332e-35
6.27991e-35
1.71117e-34
-8.20168e-34
9.17252e-34
2.89217e-33
-1.16158e-32
5.8292e-33
5.75554e-32
-1.32211e-31
-1.24432e-31
9.34842e-31
-5.11854e-31
-4.65049e-30
7.65261e-30
1.87374e-29
-5.61306e-29
-6.57343e-29
3.33496e-28
2.25544e-28
-1.80467e-27
-9.81682e-28
9.26314e-27
6.44243e-27
-4.48525e-26
-5.07494e-26
1.93624e-25
3.77719e-25
-6.31251e-25
-2.38454e-24
4.585e-25
1.16155e-23
1.30322e-23
-3.38962e-23
-1.10488e-22
-3.58396e-23
4.12073e-22
9.36743e-22
1.81204e-22
-3.42345e-21
-8.39732e-21
-6.44401e-21
1.58861e-20
6.39844e-20
1.12417e-19
8.82225e-20
-1.16843e-19
-5.93932e-19
-1.34324e-18
-2.22511e-18
-2.98199e-18
-3.33881e-18
-3.13528e-18
-2.41382e-18
-1.40748e-18
-4.31962e-19
2.55632e-19
5.53326e-19
5.22123e-19
3.17618e-19
9.72235e-20
-4.45469e-20
-8.96654e-20
-7.02402e-20
-3.0397e-20
-3.42524e-24
1.20229e-20
1.07265e-20
4.8443e-21
1.4724e-22
-1.4682e-21
-7.728e-48
4.25533e-48
-4.22685e-47
1.82628e-46
-8.14106e-46
3.42685e-45
-1.36821e-44
5.13517e-44
-1.79116e-43
5.69898e-43
-1.59788e-42
3.64099e-42
-4.91588e-42
-8.98091e-42
1.0183e-40
-4.84355e-40
1.68165e-39
-4.50636e-39
8.52397e-39
-5.35123e-39
-3.80342e-38
1.95722e-37
-5.17783e-37
6.49377e-37
1.09591e-36
-8.18548e-36
2.0489e-35
-1.31649e-35
-9.08808e-35
3.51756e-34
-4.16211e-34
-1.08017e-33
5.29781e-33
-6.06243e-33
-1.84004e-32
7.52299e-32
-3.94914e-32
-3.69812e-31
8.60554e-31
7.84927e-31
-6.04859e-30
3.41011e-30
2.99925e-29
-4.9892e-29
-1.20523e-28
3.64457e-28
4.21696e-28
-2.16213e-27
-1.44438e-27
1.16938e-26
6.30336e-27
-6.00135e-26
-4.16108e-26
2.90525e-25
3.28913e-25
-1.25314e-24
-2.45022e-24
4.07353e-24
1.54582e-23
-2.83695e-24
-7.513e-23
-8.51025e-23
2.1771e-22
7.16319e-22
2.43929e-22
-2.64805e-21
-6.08382e-21
-1.32153e-21
2.18921e-20
5.43898e-20
4.30977e-20
-9.90299e-20
-4.09205e-19
-7.29285e-19
-5.9786e-19
6.73649e-19
3.66871e-18
8.39503e-18
1.39713e-17
1.8765e-17
2.10294e-17
1.97452e-17
1.51808e-17
8.81528e-18
2.65193e-18
-1.68009e-18
-3.53851e-18
-3.31603e-18
-2.00381e-18
-6.01037e-19
2.95464e-19
5.75653e-19
4.46956e-19
1.91159e-19
-2.27846e-21
-7.78245e-20
-6.85864e-20
-3.06158e-20
-6.13329e-22
9.48955e-21
4.85146e-47
-2.70731e-47
2.67224e-46
-1.15827e-45
5.177e-45
-2.18659e-44
8.76703e-44
-3.3085e-43
1.1627e-42
-3.74083e-42
1.06867e-41
-2.53272e-41
3.95273e-41
2.83509e-41
-5.57056e-40
2.82813e-39
-1.01004e-38
2.76062e-38
-5.34867e-38
3.79902e-38
2.2019e-37
-1.18194e-36
3.18697e-36
-4.13447e-36
-6.26941e-36
4.96167e-35
-1.26472e-34
8.65928e-35
5.45232e-34
-2.15752e-33
2.62182e-33
6.45539e-33
-3.24814e-32
3.80876e-32
1.10936e-31
-4.62592e-31
2.54493e-31
2.25429e-30
-5.3208e-30
-4.68531e-30
3.71566e-29
-2.16181e-29
-1.83587e-28
3.09097e-28
7.355e-28
-2.24791e-27
-2.56537e-27
1.33138e-26
8.76681e-27
-7.19658e-26
-3.83632e-26
3.69287e-25
2.54956e-25
-1.78744e-24
-2.02363e-24
7.70395e-24
1.50936e-23
-2.49704e-23
-9.51771e-23
1.66325e-23
4.61546e-22
5.27931e-22
-1.32769e-21
-4.41134e-21
-1.57667e-21
1.61561e-20
3.75373e-20
9.09342e-21
-1.32853e-19
-3.34642e-19
-2.74089e-19
5.83902e-19
2.48339e-18
4.49488e-18
3.8534e-18
-3.5948e-18
-2.13936e-17
-4.96325e-17
-8.30438e-17
-1.11818e-16
-1.2544e-16
-1.17765e-16
-9.03999e-17
-5.22456e-17
-1.53514e-17
1.04976e-17
2.14705e-17
1.99672e-17
1.19756e-17
3.50852e-18
-1.86352e-18
-3.5079e-18
-2.69713e-18
-1.13835e-18
2.91735e-20
4.78484e-19
4.16109e-19
1.83351e-19
1.53451e-21
-5.82509e-20
-2.87451e-46
1.62678e-46
-1.59507e-45
6.93641e-45
-3.10866e-44
1.31747e-43
-5.30436e-43
2.01245e-42
-7.12334e-42
2.31589e-41
-6.72927e-41
1.6495e-40
-2.86091e-40
-1.4171e-42
2.81647e-39
-1.552e-38
5.7237e-38
-1.59825e-37
3.17495e-37
-2.52151e-37
-1.19558e-36
6.73781e-36
-1.85474e-35
2.49158e-35
3.35304e-35
-2.84024e-34
7.38404e-34
-5.38851e-34
-3.08516e-33
1.25121e-32
-1.5641e-32
-3.6362e-32
1.883e-31
-2.26653e-31
-6.31145e-31
2.69052e-30
-1.55482e-30
-1.29856e-29
3.11372e-29
2.63411e-29
-2.159e-28
1.29977e-28
1.06247e-27
-1.81326e-27
-4.24171e-27
1.31226e-26
1.4739e-26
-7.75816e-26
-5.02175e-26
4.19102e-25
2.20362e-25
-2.1504e-24
-1.47596e-24
1.04077e-23
1.17737e-23
-4.48277e-23
-8.79661e-23
1.44888e-22
5.54551e-22
-9.20992e-23
-2.68332e-21
-3.09978e-21
7.66008e-21
2.5712e-20
9.64342e-21
-9.32451e-20
-2.19242e-19
-5.89009e-20
7.62253e-19
1.94882e-18