/*--------------------------------*- C++ -*----------------------------------*\
  =========                 |
  \\      /  F ield         | OpenFOAM: The Open Source CFD Toolbox
   \\    /   O peration     | Website:  https://openfoam.org
    \\  /    A nd           | Version:  13
     \\/     M anipulation  |
\*---------------------------------------------------------------------------*/
FoamFile
{
    format      ascii;
    class       volScalarField;
    location    "5.3";
    object      T;
}
// * * * * * * * * * * * * * * * * * * * * * * * * * * * * * * * * * * * * * //

dimensions      [0 0 0 1 0 0 0];

internalField   nonuniform List<scalar> 
10000
(
3.8835e-62
-2.03924e-62
2.07158e-61
-8.84478e-61
3.902e-60
-1.62033e-59
6.35818e-59
-2.33135e-58
7.86439e-58
-2.37371e-57
6.03693e-57
-1.06925e-56
-2.35245e-57
1.34015e-55
-7.77253e-55
3.1367e-54
-1.00131e-53
2.51647e-53
-4.37153e-53
1.39725e-53
2.51531e-52
-1.14572e-51
2.8497e-51
-3.16252e-51
-7.45538e-51
4.73611e-50
-1.11825e-49
5.62039e-50
5.42359e-49
-1.96157e-48
2.12188e-48
6.51465e-48
-2.95958e-47
3.12606e-47
1.08131e-46
-4.16647e-46
1.86244e-46
2.10342e-45
-4.6883e-45
-4.73492e-45
3.36262e-44
-1.71714e-44
-1.68515e-43
2.70664e-43
6.82822e-43
-2.00443e-42
-2.40752e-42
1.19516e-41
8.2782e-42
-6.47631e-41
-3.57648e-41
3.32623e-40
2.31797e-40
-1.61212e-39
-1.81487e-39
6.9785e-39
1.35011e-38
-2.29468e-38
-8.54718e-38
1.85894e-38
4.19104e-37
4.57956e-37
-1.24584e-36
-3.96199e-36
-1.11729e-36
1.51176e-35
3.34483e-35
4.42558e-36
-1.27074e-34
-3.02015e-34
-2.12914e-34
6.248e-34
2.37354e-33
4.02861e-33
2.81395e-33
-5.33301e-33
-2.37838e-32
-5.24576e-32
-8.60141e-32
-1.14709e-31
-1.28176e-31
-1.20393e-31
-9.29734e-32
-5.47101e-32
-1.75201e-32
8.86033e-33
2.05159e-32
1.96722e-32
1.21504e-32
3.88809e-33
-1.5068e-33
-3.29397e-33
-2.63507e-33
-1.17147e-33
-3.1731e-35
4.32932e-34
3.97905e-34
1.84653e-34
9.98647e-36
-5.30643e-35
-1.11688e-61
5.98652e-62
-6.02222e-61
2.58454e-60
-1.14539e-59
4.78477e-59
-1.89201e-58
7.01028e-58
-2.40103e-57
7.4271e-57
-1.98022e-56
4.00598e-56
-2.63417e-56
-2.76704e-55
1.91071e-54
-8.16244e-54
2.68898e-53
-6.93027e-53
1.24673e-52
-5.60192e-53
-6.49562e-52
3.09713e-51
-7.89412e-51
9.22119e-51
1.90588e-50
-1.28612e-49
3.1083e-49
-1.73898e-49
-1.4552e-48
5.40529e-48
-6.06725e-48
-1.74086e-47
8.14963e-47
-8.896e-47
-2.91857e-46
1.1513e-45
-5.50847e-46
-5.75066e-45
1.30418e-44
1.26513e-44
-9.2777e-44
4.93646e-44
4.62969e-43
-7.54246e-43
-1.86971e-42
5.5546e-42
6.57209e-42
-3.3052e-41
-2.25625e-41
1.78964e-40
9.7865e-41
-9.18882e-40
-6.38972e-40
4.45147e-39
5.02235e-39
-1.9242e-38
-3.73842e-38
6.29835e-38
2.36345e-37
-4.81819e-38
-1.1548e-36
-1.28034e-36
3.39823e-36
1.09543e-35
3.34715e-36
-4.12737e-35
-9.27044e-35
-1.54478e-35
3.44673e-34
8.33717e-34
6.17056e-34
-1.64161e-33
-6.43972e-33
-1.11444e-32
-8.32989e-33
1.2953e-32
6.18651e-32
1.38321e-31
2.28074e-31
3.0498e-31
3.41163e-31
3.20401e-31
2.47014e-31
1.44629e-31
4.52603e-32
-2.49798e-32
-5.56709e-32
-5.29069e-32
-3.24042e-32
-1.01215e-32
4.30817e-33
8.98474e-33
7.10395e-33
3.11168e-33
3.83102e-35
-1.19423e-33
-1.07947e-33
-4.93469e-34
-2.02612e-35
1.46072e-34
8.59361e-61
-4.62756e-61
4.64488e-60
-1.99568e-59
8.85281e-59
-3.70284e-58
1.46653e-57
-5.4454e-57
1.87075e-56
-5.81447e-56
1.56392e-55
-3.23478e-55
2.56444e-55
1.95417e-54
-1.41853e-53
6.14576e-53
-2.03968e-52
5.28718e-52
-9.58537e-52
4.57719e-52
4.88095e-51
-2.35285e-50
6.031e-50
-7.12519e-50
-1.42827e-49
9.78093e-49
-2.37672e-48
1.36079e-48
1.1035e-47
-4.12496e-47
4.66967e-47
1.31877e-46
-6.21843e-46
6.84027e-46
2.21625e-45
-8.79237e-45
4.27316e-45
4.38047e-44
-9.97626e-44
-9.58153e-44
7.08304e-43
-3.80631e-43
-3.53082e-42
5.77276e-42
1.4247e-41
-4.24557e-41
-5.00359e-41
2.52503e-40
1.71679e-40
-1.36697e-39
-7.45282e-40
7.01827e-39
4.87532e-39
-3.39973e-38
-3.83638e-38
1.46919e-37
2.85649e-37
-4.80448e-37
-1.80552e-36
3.62948e-37
8.81551e-36
9.80448e-36
-2.58832e-35
-8.36865e-35
-2.60114e-35
3.14418e-34
7.08631e-34
1.23608e-34
-2.62162e-33
-6.36729e-33
-4.76441e-33
1.239e-32
4.89825e-32
8.51563e-32
6.46258e-32
-9.57535e-32
-4.65681e-31
-1.04474e-30
-1.72504e-30
-2.30824e-30
-2.58279e-30
-2.42553e-30
-1.8692e-30
-1.09308e-30
-3.40098e-31
1.91705e-31
4.23439e-31
4.01553e-31
2.45441e-31
7.62064e-32
-3.31667e-32
-6.84234e-32
-5.39497e-32
-2.35464e-32
-2.04872e-34
9.11877e-33
8.21026e-33
3.73972e-33
1.41766e-34
-1.11482e-33
-5.89962e-60
3.2027e-60
-3.20233e-59
1.37861e-58
-6.12593e-58
2.56795e-57
-1.0199e-56
3.80112e-56
-1.31277e-55
4.11385e-55
-1.12301e-54
2.40787e-54
-2.42179e-54
-1.12601e-53
9.10021e-53
-4.05218e-52
1.36375e-51
-3.57284e-51
6.56876e-51
-3.46789e-51
-3.20613e-50
1.5776e-49
-4.08583e-49
4.9259e-49
9.33428e-49
-6.5711e-48
1.61259e-47
-9.61419e-48
-7.37448e-47
2.78879e-46
-3.20549e-46
-8.79645e-46
4.20305e-45
-4.68731e-45
-1.48488e-44
5.95195e-44
-2.97358e-44
-2.95162e-43
6.77325e-43
6.3888e-43
-4.79201e-42
2.62067e-42
2.38428e-41
-3.923e-41
-9.60591e-41
2.87821e-40
3.36852e-40
-1.71028e-39
-1.15466e-39
9.25594e-39
5.0204e-39
-4.75172e-38
-3.29532e-38
2.30147e-37
2.5982e-37
-9.94072e-37
-1.93549e-36
3.24509e-36
1.22287e-35
-2.39382e-36
-5.96262e-35
-6.66975e-35
1.74347e-34
5.66826e-34
1.81627e-34
-2.11855e-33
-4.80469e-33
-9.06066e-34
1.76145e-32
4.31019e-32
3.28877e-32
-8.20637e-32
-3.29132e-31
-5.76981e-31
-4.49812e-31
6.09361e-31
3.06912e-30
6.92967e-30
1.14715e-29
1.53686e-29
1.72053e-29
1.61567e-29
1.24414e-29
7.25882e-30
2.23409e-30
-1.30908e-30
-2.84518e-30
-2.68751e-30
-1.63652e-30
-5.02465e-31
2.27755e-31
4.60791e-31
3.61468e-31
1.56718e-31
3.11499e-34
-6.17054e-32
-5.5162e-32
-2.49596e-32
-8.00513e-34
7.53721e-33
3.94428e-59
-2.15837e-59
2.14994e-58
-9.27349e-58
4.12749e-57
-1.73388e-56
6.90473e-56
-2.58244e-55
8.96294e-55
-2.83002e-54
7.82911e-54
-1.7312e-53
2.04666e-53
6.13934e-53
-5.67465e-52
2.60259e-51
-8.88635e-51
2.35327e-50
-4.38691e-50
2.53186e-50
2.05081e-49
-1.03096e-48
2.69814e-48
-3.31832e-48
-5.93759e-48
4.30283e-47
-1.06656e-46
6.61202e-47
4.8026e-46
-1.83791e-45
2.14494e-45
5.71728e-45
-2.76928e-44
3.13133e-44
9.69554e-44
-3.92783e-43
2.01682e-43
1.93862e-42
-4.48335e-42
-4.15032e-42
3.16056e-41
-1.75944e-41
-1.56949e-40
2.59938e-40
6.3131e-40
-1.90241e-39
-2.21023e-39
1.12942e-38
7.56779e-39
-6.11039e-38
-3.29549e-38
3.13662e-37
2.17086e-37
-1.51904e-36
-1.71528e-36
6.55808e-36
1.27852e-35
-2.13723e-35
-8.07504e-35
1.53947e-35
3.93218e-34
4.42335e-34
-1.14505e-33
-3.74323e-33
-1.23522e-33
1.39178e-32
3.17628e-32
6.43893e-33
-1.15384e-31
-2.84482e-31
-2.21295e-31
5.29608e-31
2.15608e-30
3.81182e-30
3.05135e-30
-3.76253e-30
-1.97009e-29
-4.47851e-29
-7.43387e-29
-9.97214e-29
-1.11698e-28
-1.04883e-28
-8.07002e-29
-4.69705e-29
-1.42903e-29
8.7161e-30
1.86371e-29
1.75329e-29
1.06347e-29
3.22693e-30
-1.52481e-30
-3.02535e-30
-2.36083e-30
-1.01653e-30
5.11078e-33
4.07114e-31
3.61306e-31
1.62368e-31
4.2238e-33
-4.96842e-32
-2.55559e-58
1.4099e-58
-1.39897e-57
6.04603e-57
-2.69542e-56
1.13469e-55
-4.53047e-55
1.70029e-54
-5.92951e-54
1.88578e-53
-5.2823e-53
1.20071e-52
-1.60355e-52
-3.07981e-52
3.41314e-51
-1.61806e-50
5.61089e-50
-1.50268e-49
2.84123e-49
-1.78085e-49
-1.26917e-48
6.52937e-48
-1.72762e-47
2.16817e-47
3.65147e-47
-2.73093e-46
6.8406e-46
-4.40938e-46
-3.03043e-45
1.17442e-44
-1.39236e-44
-3.59977e-44
1.76916e-43
-2.0294e-43
-6.1348e-43
2.51356e-42
-1.32742e-42
-1.23437e-41
2.87827e-41
2.61137e-41
-2.0214e-40
1.1464e-40
1.00173e-39
-1.67071e-39
-4.0223e-39
1.21957e-38
1.40568e-38
-7.23342e-38
-4.80672e-38
3.91213e-37
2.09641e-37
-2.00805e-36
-1.38634e-36
9.72389e-36
1.09802e-35
-4.19619e-35
-8.19022e-35
1.36521e-34
5.1714e-34
-9.59474e-35
-2.51496e-33
-2.84528e-33
7.29271e-33
2.39751e-32
8.14694e-33
-8.86639e-32
-2.03663e-31
-4.42594e-32
7.32811e-31
1.8211e-30
1.4448e-30
-3.31007e-30
-1.36938e-29
-2.44261e-29
-2.00856e-29
2.23492e-29
1.22393e-28
2.80315e-28
4.66667e-28
6.26882e-28
7.02571e-28
6.59661e-28
5.07121e-28
2.94391e-28
8.84318e-29
-5.63032e-29
-1.18355e-28
-1.10862e-28
-6.69628e-29
-2.00589e-29
9.9052e-30
1.92597e-29
1.4946e-29
6.38798e-30
-8.05772e-32
-2.60505e-30
-2.29432e-30
-1.02355e-30
-1.99671e-32
3.17627e-31
1.6026e-57
-8.91562e-58
8.81145e-57
-3.81565e-56
1.70388e-55
-7.18789e-55
2.87738e-54
-1.08353e-53
3.79622e-53
-1.21569e-52
3.44525e-52
-8.02833e-52
1.18001e-51
1.36925e-51
-1.97623e-50
9.72483e-50
-3.42872e-49
9.29135e-49
-1.78242e-48
1.20645e-48
7.58857e-48
-4.00284e-47
1.07133e-46
-1.37248e-46
-2.16759e-46
1.67798e-45
-4.24955e-45
2.84806e-45
1.85045e-44
-7.26795e-44
8.7581e-44
2.19289e-43
-1.09461e-42
1.27453e-42
3.75702e-42
-1.558e-41
8.46893e-42
7.61043e-41
-1.79016e-40
-1.58932e-40
1.25223e-39
-7.24166e-40
-6.19187e-39
1.04048e-38
2.48155e-38
-7.57437e-38
-8.65487e-38
4.4879e-37
2.95497e-37
-2.42641e-36
-1.29082e-36
1.24537e-35
8.57224e-36
-6.03026e-35
-6.80767e-35
2.60119e-34
5.08231e-34
-8.44886e-34
-3.20835e-33
5.78967e-34
1.55828e-32
1.77311e-32
-4.49909e-32
-1.48767e-31
-5.20509e-32
5.47117e-31
1.26521e-30
2.94001e-31
-4.50735e-30
-1.12942e-29
-9.14232e-30
2.00105e-29
8.4227e-29
1.5165e-28
1.28154e-28
-1.27338e-28
-7.34905e-28
-1.69708e-27
-2.83441e-27
-3.81328e-27
-4.27633e-27
-4.01484e-27
-3.08354e-27
-1.78494e-27
-5.28668e-28
3.52468e-28
7.27851e-28
6.78628e-28
4.08058e-28
1.20524e-28
-6.23626e-29
-1.1875e-28
-9.16105e-29
-3.88441e-29
8.09404e-31
1.61487e-29
1.41086e-29
6.24527e-30
7.81179e-32
-1.96707e-30
-9.71162e-57
5.44964e-57
-5.36391e-56
2.32744e-55
-1.04104e-54
4.40092e-54
-1.76628e-53
6.6734e-53
-2.34864e-52
7.57122e-52
-2.16935e-51
5.17035e-51
-8.21377e-51
-4.88941e-51
1.09867e-49
-5.64095e-49
2.02474e-48
-5.55495e-48
1.08157e-47
-7.86769e-48
-4.3759e-47
2.37183e-46
-6.42487e-46
8.40531e-46
1.23959e-45
-9.96648e-45
2.5534e-44
-1.77943e-44
-1.09178e-43
4.34979e-43
-5.3309e-43
-1.29043e-42
6.54975e-42
-7.7463e-42
-2.22355e-41
9.34064e-41
-5.23074e-41
-4.53686e-40
1.07718e-39
9.34135e-40
-7.50328e-39
4.42913e-39
3.70134e-38
-6.27012e-38
-1.48033e-37
4.55121e-37
5.15131e-37
-2.69376e-36
-1.75556e-36
1.45587e-35
7.68096e-36
-7.47202e-35
-5.12461e-35
3.61795e-34
4.08205e-34
-1.56004e-33
-3.0507e-33
5.05896e-33
1.9256e-32
-3.37834e-33
-9.34078e-32
-1.06902e-31
2.68499e-31
8.93083e-31
3.217e-31
-3.2657e-30
-7.60459e-30
-1.88532e-30
2.68121e-29
6.77686e-29
5.59941e-29
-1.16826e-28
-5.01008e-28
-9.10998e-28
-7.91537e-28
6.93169e-28
4.25765e-27
9.92256e-27
1.6631e-26
2.24116e-26
2.51499e-26
2.36101e-26
1.81148e-26
1.04532e-26
3.04776e-27
-2.13553e-27
-4.32846e-27
-4.01583e-27
-2.40296e-27
-6.98799e-28
3.80038e-28
7.08147e-28
5.42884e-28
2.28219e-28
-6.79899e-30
-9.6848e-29
-8.38983e-29
-3.68293e-29
-1.82288e-31
1.17851e-29
5.67698e-56
-3.2144e-56
3.15034e-55
-1.36978e-54
6.13722e-54
-2.59996e-53
1.04617e-52
-3.96564e-52
1.40184e-51
-4.54802e-51
1.31671e-50
-3.20343e-50
5.42872e-50
8.59015e-51
-5.84642e-49
3.15205e-48
-1.15348e-47
3.20598e-47
-6.33786e-47
4.93469e-47
2.42864e-46
-1.35611e-45
3.72031e-45
-4.9724e-45
-6.81338e-45
5.71296e-44
-1.48162e-43
1.07383e-43
6.21333e-43
-2.51363e-42
3.13522e-42
7.32255e-42
-3.78422e-41
4.54933e-41
1.26961e-40
-5.40804e-40
3.12315e-40
2.61084e-39
-6.26121e-39
-5.29251e-39
4.34186e-38
-2.61917e-38
-2.13635e-37
3.65075e-37
8.52478e-37
-2.64173e-36
-2.95893e-36
1.5618e-35
1.00621e-35
-8.43778e-35
-4.40937e-35
4.33045e-34
2.957e-34
-2.09682e-33
-2.36353e-33
9.03849e-33
1.76864e-32
-2.92648e-32
-1.11635e-31
1.90378e-32
5.40865e-31
6.22598e-31
-1.5477e-30
-5.17915e-30
-1.92044e-30
1.88268e-29
4.41572e-29
1.16566e-29
-1.54011e-28
-3.92824e-28
-3.31458e-28
6.57544e-28
2.87759e-27
5.28719e-27
4.7258e-27
-3.58597e-27
-2.37534e-26
-5.59291e-26
-9.41079e-26
-1.27049e-25
-1.42677e-25
-1.33929e-25
-1.02641e-25
-5.90263e-26
-1.69085e-26
1.2504e-26
2.4853e-26
2.29357e-26
1.36516e-26
3.90224e-27
-2.23837e-27
-4.07802e-27
-3.10539e-27
-1.29333e-27
5.12046e-29
5.61068e-28
4.81708e-28
2.09567e-28
-6.80716e-31
-6.82024e-29
-3.19464e-55
1.82606e-55
-1.78163e-54
7.76321e-54
-3.48422e-53
1.47921e-52
-5.96743e-52
2.26943e-51
-8.05719e-51
2.63023e-50
-7.69024e-50
1.90667e-49
-3.41303e-49
6.49619e-50
2.96649e-48
-1.69308e-47
6.32734e-47
-1.78287e-46
3.58013e-46
-2.97325e-46
-1.29428e-45
7.46757e-45
-2.07627e-44
2.83656e-44
3.58964e-44
-3.15453e-43
8.28753e-43
-6.24898e-43
-3.40411e-42
1.40002e-41
-1.77859e-41
-3.99878e-41
2.10737e-40
-2.5774e-40
-6.98043e-40
3.01851e-39
-1.79981e-39
-1.44776e-38
3.50958e-38
2.88439e-38
-2.42213e-37
1.49517e-37
1.18847e-36
-2.05034e-36
-4.73043e-36
1.47874e-35
1.63717e-35
-8.73172e-35
-5.55281e-35
4.71558e-34
2.4372e-34
-2.42014e-33
-1.64381e-33
1.17192e-32
1.31908e-32
-5.05034e-32
-9.88604e-32
1.63279e-31
6.24083e-31
-1.03466e-31
-3.02012e-30
-3.49667e-30
8.60253e-30
2.89648e-29
1.10545e-29
-1.04651e-28
-2.47289e-28
-6.93869e-29
8.52778e-28
2.196e-27
1.89322e-27
-3.56084e-27
-1.59314e-26
-2.95965e-26
-2.72302e-26
1.75005e-26
1.27329e-25
3.03302e-25
5.12564e-25
6.93367e-25
7.79294e-25
7.31436e-25
5.59866e-25
3.20739e-25
9.00558e-26
-7.06375e-26
-1.37536e-25
-1.262e-25
-7.46834e-26
-2.09413e-26
1.27213e-26
2.26391e-26
1.71159e-26
7.05631e-27
-3.55484e-28
-3.13456e-27
-2.66572e-27
-1.14853e-27
1.39914e-29
3.80609e-28
1.72656e-54
-9.96891e-55
9.6799e-54
-4.22733e-53
1.90063e-52
-8.08672e-52
3.27087e-51
-1.24799e-50
4.44976e-50
-1.46137e-49
4.31312e-49
-1.08825e-48
2.04212e-48
-9.70718e-49
-1.42826e-47
8.72052e-47
-3.33467e-46
9.5334e-46
-1.94552e-45
1.71834e-45
6.60492e-45
-3.95186e-44
1.11451e-43
-1.55732e-43
-1.80683e-43
1.67432e-42
-4.45973e-42
3.5002e-42
1.79142e-41
-7.50038e-41
9.71394e-41
2.09664e-40
-1.12884e-39
1.40597e-39
3.68741e-39
-1.62095e-38
9.99275e-39
7.71968e-38
-1.89339e-37
-1.50841e-37
1.30003e-36
-8.22485e-37
-6.35957e-36
1.10863e-35
2.52413e-35
-7.96723e-35
-8.70676e-35
4.69833e-34
2.94382e-34
-2.53632e-33
-1.2941e-33
1.30174e-32
8.78478e-33
-6.30429e-32
-7.08154e-32
2.71635e-31
5.31735e-31
-8.77022e-31
-3.35775e-30
5.41513e-31
1.62316e-29
1.89008e-29
-4.60191e-29
-1.55918e-28
-6.12377e-29
5.5981e-28
1.3331e-27
3.96979e-28
-4.54294e-27
-1.1817e-26
-1.0415e-26
1.85115e-26
8.48526e-26
1.59495e-25
1.51152e-25
-7.96793e-26
-6.54094e-25
-1.57882e-24
-2.68114e-24
-3.63501e-24
-4.08917e-24
-3.83761e-24
-2.93339e-24
-1.67336e-24
-4.59176e-25
3.84291e-25
7.32128e-25
6.67611e-25
3.9259e-25
1.07725e-25
-6.96337e-26
-1.20921e-25
-9.07138e-26
-3.69838e-26
2.30526e-27
1.68556e-26
1.41901e-26
6.0499e-27
-1.32928e-28
-2.04427e-27
-8.93702e-54
5.2165e-54
-5.03912e-53
2.20587e-52
-9.93588e-52
4.23705e-51
-1.71836e-50
6.57794e-50
-2.35541e-49
7.78132e-49
-2.31742e-48
5.94328e-48
-1.16223e-47
8.29003e-48
6.48312e-47
-4.29472e-46
1.68424e-45
-4.88976e-45
1.01468e-44
-9.50781e-45
-3.21705e-44
2.00482e-43
-5.74057e-43
8.21008e-43
8.65362e-43
-8.52118e-42
2.30345e-41
-1.88308e-41
-9.03187e-41
3.85594e-40
-5.09657e-40
-1.05263e-39
5.80291e-39
-7.36877e-39
-1.86671e-38
8.35555e-38
-5.33448e-38
-3.94869e-37
9.80959e-37
7.5475e-37
-6.69813e-36
4.35123e-36
3.26571e-35
-5.75881e-35
-1.29204e-34
4.12268e-34
4.43956e-34
-2.42772e-33
-1.49531e-33
1.31001e-32
6.58337e-33
-6.72401e-32
-4.50206e-32
3.2571e-31
3.64849e-31
-1.40332e-30
-2.74586e-30
4.52549e-30
1.73485e-29
-2.72517e-30
-8.37827e-29
-9.81112e-29
2.36422e-28
8.06099e-28
3.25748e-28
-2.87559e-27
-6.90284e-27
-2.17863e-27
2.32324e-26
6.10782e-26
5.50665e-26
-9.21426e-26
-4.33805e-25
-8.25686e-25
-8.06643e-25
3.32277e-25
3.21015e-24
7.86776e-24
1.34347e-23
1.82602e-23
2.05623e-23
1.92949e-23
1.47258e-23
8.36016e-24
2.23374e-24
-2.00912e-24
-3.74025e-24
-3.38756e-24
-1.97817e-24
-5.29589e-25
3.66345e-25
6.2003e-25
4.61248e-25
1.85751e-25
-1.40577e-26
-8.70504e-26
-7.24963e-26
-3.05559e-26
1.00131e-27
1.05446e-26
4.41575e-53
-2.60842e-53
2.50542e-52
-1.09955e-51
4.96228e-51
-2.12112e-50
8.626e-50
-3.31316e-49
1.19146e-48
-3.95911e-48
1.18945e-47
-3.09758e-47
6.28282e-47
-5.75218e-47
-2.74959e-46
2.01543e-45
-8.12783e-45
2.39885e-44
-5.06508e-44
5.02521e-44
1.48957e-43
-9.72135e-43
2.8294e-42
-4.1454e-42
-3.92327e-42
4.14638e-41
-1.13885e-40
9.70684e-41
4.34915e-40
-1.89711e-39
2.5623e-39
5.04407e-39
-2.85495e-38
3.70133e-38
9.02888e-38
-4.12342e-37
2.73175e-37
1.93217e-36
-4.86829e-36
-3.60072e-36
3.3041e-35
-2.20876e-35
-1.60496e-34
2.86675e-34
6.32675e-34
-2.04367e-33
-2.16404e-33
1.20159e-32
7.25453e-33
-6.48099e-32
-3.19857e-32
3.32698e-31
2.20608e-31
-1.61208e-30
-1.79907e-30
6.94625e-30
1.3578e-29
-2.23791e-29
-8.58563e-29
1.31663e-29
4.14296e-28
4.87807e-28
-1.16359e-27
-3.99259e-27
-1.65962e-27
1.41485e-26
3.42467e-26
1.14423e-26
-1.13763e-25
-3.02472e-25
-2.79153e-25
4.37798e-25
2.12335e-24
4.09612e-24
4.12893e-24
-1.22509e-24
-1.49955e-23
-3.74157e-23
-6.42937e-23
-8.76356e-23
-9.87968e-23
-9.26937e-23
-7.062e-23
-3.98739e-23
-1.03244e-23
1.00698e-23
1.82901e-23
1.64423e-23
9.52699e-24
2.47915e-24
-1.84797e-24
-3.04415e-24
-2.24395e-24
-8.91387e-25
8.08729e-26
4.30692e-25
3.54541e-25
1.47562e-25
-6.60644e-27
-5.21026e-26
-2.07412e-52
1.24172e-52
-1.1851e-51
5.21558e-51
-2.3587e-50
1.01076e-49
-4.12236e-49
1.58886e-48
-5.73865e-48
1.91804e-47
-5.81186e-47
1.53568e-46
-3.21866e-46
3.50926e-46
1.07502e-45
-8.97501e-45
3.73431e-44
-1.12181e-43
2.41206e-43
-2.52996e-43
-6.52369e-43
4.48981e-42
-1.33008e-41
1.99847e-41
1.67217e-41
-1.92241e-40
5.37256e-40
-4.78058e-40
-1.99281e-39
8.90351e-39
-1.23074e-38
-2.29797e-38
1.33997e-37
-1.77665e-37
-4.1573e-37
1.94203e-36
-1.33833e-36
-9.0143e-36
2.30734e-35
1.63081e-35
-1.5556e-34
1.07298e-34
7.52473e-34
-1.36365e-33
-2.95378e-33
9.67642e-33
1.00485e-32
-5.67961e-32
-3.34876e-32
3.06197e-31
1.47846e-31
-1.57215e-30
-1.03e-30
7.62125e-30
8.46309e-30
-3.2848e-29
-6.40961e-29
1.05759e-28
4.0577e-28
-6.09701e-29
-1.95684e-27
-2.31607e-27
5.47044e-27
1.88892e-26
8.07401e-27
-6.64842e-26
-1.62318e-25
-5.73538e-26
5.31806e-25
1.431e-24
1.35301e-24
-1.97831e-24
-9.92045e-24
-1.94165e-23
-2.02164e-23
3.6613e-24
6.63639e-23
1.69155e-22
2.92803e-22
4.00412e-22
4.51997e-22
4.24004e-22
3.22388e-22
1.80884e-22
4.51003e-23
-4.82483e-23
-8.53487e-23
-7.6094e-23
-4.37057e-23
-1.1002e-23
8.91289e-24
1.42675e-23
1.0412e-23
4.07299e-24
-4.39377e-25
-2.03543e-24
-1.65464e-24
-6.79137e-25
3.95462e-26
2.45891e-25
9.21332e-52
-5.60161e-52
5.30698e-51
-2.34294e-50
1.062e-49
-4.56333e-49
1.8669e-48
-7.22179e-48
2.62014e-47
-8.80914e-47
2.6919e-46
-7.21264e-46
1.55749e-45
-1.93695e-45
-3.78917e-45
3.77294e-44
-1.6263e-43
4.98006e-43
-1.09147e-42
1.20909e-42
2.68486e-42
-1.96657e-41
5.93977e-41
-9.16505e-41
-6.63591e-41
8.45668e-40
-2.40906e-39
2.24182e-39
8.64903e-39
-3.97047e-38
5.628e-38
9.90458e-38
-5.97654e-37
8.12121e-37
1.8141e-36
-8.69623e-36
6.25291e-36
3.9936e-35
-1.04063e-34
-6.97357e-35
6.96407e-34
-4.97266e-34
-3.35259e-33
6.17708e-33
1.30952e-32
-4.3607e-32
-4.4255e-32
2.55466e-31
1.46382e-31
-1.37658e-30
-6.47013e-31
7.07001e-30
4.56237e-30
-3.42943e-29
-3.78322e-29
1.47888e-28
2.8778e-28
-4.76037e-28
-1.82488e-27
2.70181e-28
8.79778e-27
1.04629e-26
-2.44834e-26
-8.50637e-26
-3.73718e-26
2.9733e-25
7.32414e-25
2.73457e-25
-2.36491e-24
-6.44539e-24
-6.24905e-24
8.46413e-24
4.40821e-23
8.76452e-23
9.43827e-23
-6.09799e-24
-2.76607e-22
-7.23606e-22
-1.2634e-21
-1.73432e-21
-1.9607e-21
-1.83892e-21
-1.39496e-21
-7.7691e-22
-1.84906e-22
2.20258e-22
3.78648e-22
3.34478e-22
1.90206e-22
4.60242e-23
-4.09653e-23
-6.36053e-23
-4.59039e-23
-1.76458e-23
2.25319e-24
9.15625e-24
7.34234e-24
2.96701e-24
-2.18062e-25
-1.10448e-24
-3.84378e-51
2.38042e-51
-2.23554e-50
9.9057e-50
-4.50162e-49
1.94023e-48
-7.96463e-48
3.09313e-47
-1.12757e-46
3.81414e-46
-1.17547e-45
3.19252e-45
-7.08654e-45
9.78205e-45
1.15305e-44
-1.48729e-43
6.67624e-43
-2.0878e-42
4.66994e-42
-5.46147e-42
-1.02915e-41
8.12484e-41
-2.50737e-40
3.98017e-40
2.41628e-40
-3.51103e-39
1.02186e-38
-9.96877e-39
-3.53481e-38
1.67427e-37
-2.43965e-37
-4.01341e-37
2.52102e-36
-3.52038e-36
-7.45941e-36
3.68523e-35
-2.77557e-35
-1.6717e-34
4.4466e-34
2.79491e-34
-2.95087e-33
2.19045e-33
1.4127e-32
-2.65351e-32
-5.48525e-32
1.86237e-31
1.83853e-31
-1.0887e-30
-6.02206e-31
5.86343e-30
2.66404e-30
-3.01263e-29
-1.90683e-29
1.46259e-28
1.59935e-28
-6.31265e-28
-1.22336e-27
2.0327e-27
7.77569e-27
-1.14391e-27
-3.74902e-26
-4.47732e-26
1.03886e-25
3.63071e-25
1.63848e-25
-1.2602e-24
-3.13298e-24
-1.23517e-24
9.96118e-24
2.75228e-23
2.73927e-23
-3.40965e-23
-1.85485e-22
-3.7519e-22
-4.18537e-22
-2.23702e-23
1.07724e-21
2.91143e-21
5.13649e-21
7.08305e-21
8.02193e-21
7.52196e-21
5.69028e-21
3.14122e-21
7.04664e-22
-9.54144e-22
-1.58991e-21
-1.38978e-21
-7.81259e-22
-1.80136e-22
1.78709e-22
2.68526e-22
1.91396e-22
7.2107e-23
-1.08866e-23
-3.90397e-23
-3.08395e-23
-1.22444e-23
1.11488e-24
4.70162e-24
1.49175e-50
-9.45294e-51
8.78136e-50
-3.90838e-49
1.78157e-48
-7.706e-48
3.17558e-47
-1.23869e-46
4.53899e-46
-1.54534e-45
4.80444e-45
-1.32254e-44
3.01285e-44
-4.53286e-44
-2.71042e-44
5.44837e-43
-2.56471e-42
8.20999e-42
-1.87725e-41
2.31868e-41
3.62707e-41
-3.14384e-40
9.94144e-40
-1.6274e-39
-7.87499e-40
1.36633e-38
-4.07529e-38
4.18184e-38
1.34984e-37
-6.63461e-37
9.97112e-37
1.51588e-36
-9.99558e-36
1.43955e-35
2.86855e-35
-1.46925e-34
1.16506e-34
6.56912e-34
-1.79024e-33
-1.03915e-33
1.17659e-32
-9.12958e-33
-5.59564e-32
1.0754e-31
2.15677e-31
-7.49732e-31
-7.1532e-31
4.37194e-30
2.31235e-30
-2.35328e-29
-1.0233e-29
1.20982e-28
7.46609e-29
-5.88043e-28
-6.35457e-28
2.54148e-27
4.89584e-27
-8.19337e-27
-3.12191e-26
4.6204e-27
1.50623e-25
1.80475e-25
-4.15778e-25
-1.46098e-24
-6.76616e-25
5.03551e-24
1.26381e-23
5.25854e-24
-3.95282e-23
-1.10841e-22
-1.13395e-22
1.2839e-22
7.35008e-22
1.51534e-21
1.75459e-21
3.05293e-22
-3.87624e-21
-1.0931e-20
-1.95356e-20
-2.70882e-20
-3.0745e-20
-2.88208e-20
-2.173e-20
-1.18659e-20
-2.46042e-21
3.9026e-21
6.28257e-21
5.42568e-21
3.00887e-21
6.52833e-22
-7.36302e-22
-1.06765e-21
-7.50289e-22
-2.7605e-22
4.94044e-23
1.56935e-22
1.2192e-22
4.74362e-23
-5.29438e-24
-1.88668e-23
-5.30864e-50
3.4681e-50
-3.17577e-49
1.42159e-48
-6.50482e-48
2.8259e-47
-1.16996e-46
4.58724e-46
-1.6909e-45
5.7982e-45
-1.81959e-44
5.07831e-44
-1.18626e-43
1.92152e-43
2.7236e-44
-1.83106e-42
9.1274e-42
-3.00053e-41
7.02962e-41
-9.18395e-41
-1.15138e-40
1.12827e-39
-3.67054e-39
6.21749e-39
2.18528e-39
-4.93724e-38
1.51574e-37
-1.64398e-37
-4.76405e-37
2.45026e-36
-3.81565e-36
-5.27169e-36
3.69484e-35
-5.51555e-35
-1.02085e-34
5.46816e-34
-4.59744e-34
-2.40228e-33
6.74264e-33
3.52869e-33
-4.38082e-32
3.57984e-32
2.06656e-31
-4.08445e-31
-7.89098e-31
2.82521e-30
2.58066e-30
-1.64267e-29
-8.18917e-30
8.83664e-29
3.6222e-29
-4.54662e-28
-2.71171e-28
2.21359e-27
2.3534e-27
-9.58643e-27
-1.83069e-26
3.09795e-26
1.17271e-25
-1.77792e-26
-5.66669e-25
-6.80247e-25
1.55939e-24
5.5044e-24
2.61244e-24
-1.88419e-23
-4.77508e-23
-2.09619e-23
1.46757e-22
4.18174e-22
4.40483e-22
-4.47485e-22
-2.72352e-21
-5.7366e-21
-6.91232e-21
-2.06251e-21
1.26679e-20
3.78765e-20
6.88272e-20
9.61032e-20
1.09372e-19
1.02491e-19
7.69519e-20
4.14423e-20
7.68542e-21
-1.49751e-20
-2.31908e-20
-1.9744e-20
-1.07707e-20
-2.15697e-21
2.84702e-21
3.96927e-21
2.74399e-21
9.81155e-22
-2.09607e-22
-5.9073e-22
-4.50351e-22
-1.71106e-22
2.33169e-23
7.08804e-23
1.69135e-49
-1.15489e-49
1.03601e-48
-4.67517e-48
2.15034e-47
-9.39633e-47
3.91383e-46
-1.54459e-45
5.73493e-45
-1.98322e-44
6.28985e-44
-1.78161e-43
4.26808e-43
-7.3859e-43
1.72955e-43
5.53382e-42
-2.96483e-41
1.00564e-40
-2.42232e-40
3.3587e-40
3.17047e-40
-3.7022e-39
1.24665e-38
-2.19635e-38
-4.49476e-39
1.63408e-37
-5.19795e-37
6.00276e-37
1.5285e-36
-8.33551e-36
1.35418e-35
1.65578e-35
-1.25877e-34
1.96203e-34
3.30935e-34
-1.87933e-33
1.6924e-33
8.07435e-33
-2.35254e-32
-1.06584e-32
1.50704e-31
-1.31081e-31
-7.03549e-31
1.44091e-30
2.65295e-30
-9.87181e-30
-8.50683e-30
5.7194e-29
2.62561e-29
-3.07468e-28
-1.15888e-28
1.58386e-27
9.0034e-28
-7.72944e-27
-8.02972e-27
3.35768e-26
6.33029e-26
-1.08966e-25
-4.0819e-25
6.50862e-26
1.97807e-24
2.37362e-24
-5.43338e-24
-1.92379e-23
-9.33589e-24
6.54276e-23
1.67448e-22
7.75431e-23
-5.05056e-22
-1.4647e-21
-1.59202e-21
1.42336e-21
9.34664e-21
2.01773e-20
2.53899e-20
1.08843e-20
-3.65059e-20
-1.19133e-19
-2.21443e-19
-3.12064e-19
-3.56402e-19
-3.33828e-19
-2.49271e-19
-1.31773e-19
-2.05012e-20
5.34513e-20
7.91606e-20
6.62349e-20
3.53935e-20
6.33163e-21
-1.02446e-20
-1.36647e-20
-9.26359e-21
-3.19608e-21
8.25918e-22
2.06304e-21
1.53883e-21
5.6811e-22
-9.4801e-23
-2.47e-22
-4.60308e-49
3.38393e-49
-2.93566e-48
1.34215e-47
-6.22299e-47
2.74341e-46
-1.15294e-45
4.59251e-45
-1.72218e-44
6.02182e-44
-1.93509e-43
5.57662e-43
-1.37278e-42
2.52982e-42
-1.42199e-42
-1.45196e-41
8.57889e-41
-3.02583e-40
7.53694e-40
-1.11667e-39
-6.93885e-40
1.08526e-38
-3.82164e-38
7.0626e-38
2.38512e-39
-4.84653e-37
1.6153e-36
-2.01001e-36
-4.33496e-36
2.56576e-35
-4.3965e-35
-4.53785e-35
3.88396e-34
-6.39581e-34
-9.51745e-34
5.86893e-33
-5.75038e-33
-2.44661e-32
7.49637e-32
2.71397e-32
-4.71492e-31
4.43675e-31
2.17012e-30
-4.66194e-30
-8.03736e-30
3.15527e-29
2.5011e-29
-1.81976e-28
-7.3736e-29
9.77551e-28
3.23618e-28
-5.04464e-27
-2.66792e-27
2.47043e-26
2.47947e-26
-1.07823e-25
-1.99349e-25
3.5242e-25
1.29823e-24
-2.26313e-25
-6.32289e-24
-7.55544e-24
1.73743e-23
6.15453e-23
3.04221e-23
-2.08153e-22
-5.37908e-22
-2.62812e-22
1.58983e-21
4.7022e-21
5.29009e-21
-4.04088e-21
-2.93e-20
-6.51225e-20
-8.60126e-20
-4.88873e-20
8.72164e-20
3.30818e-19
6.35939e-19
9.08029e-19
1.04218e-18
9.75542e-19
7.22826e-19
3.71948e-19
4.1368e-20
-1.75349e-19
-2.46202e-19
-2.01491e-19
-1.04756e-19
-1.56959e-20
3.3902e-20
4.29518e-20
2.84185e-20
9.35294e-21
-2.99372e-21
-6.59696e-21
-4.79368e-21
-1.70669e-21
3.52951e-22
7.87837e-22
9.45027e-49
-8.16071e-49
6.60946e-48
-3.10465e-47
1.46249e-46
-6.5571e-46
2.80108e-45
-1.13411e-44
4.32415e-44
-1.53871e-43
5.04171e-43
-1.48758e-42
3.78669e-42
-7.46016e-42
6.53142e-42
3.06329e-41
-2.11063e-40
7.86115e-40
-2.04806e-39
3.2893e-39
8.52026e-40
-2.72074e-38
1.02277e-37
-2.01471e-37
3.66691e-38
1.23723e-36
-4.41644e-36
6.0515e-36
1.02662e-35
-6.92989e-35
1.27768e-34
1.00489e-34
-1.05356e-33
1.87195e-33
2.30402e-33
-1.62123e-32
1.77534e-32
6.45941e-32
-2.13256e-31
-5.00321e-32
1.30706e-30
-1.36769e-30
-5.88962e-30
1.35644e-29
2.11962e-29
-9.02959e-29
-6.26189e-29
5.1752e-28
1.68672e-28
-2.77762e-27
-7.28928e-28
1.43747e-26
6.73867e-27
-7.0781e-26
-6.72e-26
3.1128e-25
5.57645e-25
-1.02989e-24
-3.68989e-24
7.45547e-25
1.81327e-23
2.14241e-23
-5.00515e-23
-1.76509e-22
-8.82289e-23
5.94836e-22
1.55106e-21
7.99966e-22
-4.48389e-21
-1.35641e-20
-1.58703e-20
9.83719e-21
8.20981e-20
1.89222e-19
2.64432e-19
1.91403e-19
-1.43201e-19
-7.67377e-19
-1.5628e-18
-2.27917e-18
-2.63629e-18
-2.46523e-18
-1.80436e-18
-8.87892e-19
-3.1021e-20
5.19118e-19
6.8131e-19
5.40869e-19
2.70205e-19
2.86819e-20
-1.01343e-19
-1.20543e-19
-7.72195e-20
-2.37403e-20
9.83926e-21
1.89218e-20
1.33008e-20
4.50784e-21
-1.18733e-21
-2.2528e-21
-6.82076e-49
1.30436e-48
-8.19532e-48
4.2907e-47
-2.13861e-46
1.01368e-45
-4.55091e-45
1.92904e-44
-7.6792e-44
2.84895e-43
-9.73563e-43
3.006e-42
-8.09122e-42
1.74571e-41
-2.16863e-41
-3.99579e-41
3.92143e-40
-1.61038e-39
4.52116e-39
-8.16291e-39
1.73997e-39
5.23893e-38
-2.22336e-37
4.8496e-37
-2.42058e-37
-2.47129e-36
1.00007e-35
-1.58216e-35
-1.72382e-35
1.54057e-34
-3.19506e-34
-1.36712e-34
2.36345e-33
-4.74408e-33
-4.06599e-33
3.75755e-32
-4.85445e-32
-1.37944e-31
5.1938e-31
1.62116e-32
-3.05228e-30
3.74925e-30
1.32473e-29
-3.42954e-29
-4.50952e-29
2.22594e-28
1.18609e-28
-1.26342e-27
-2.44938e-28
6.7735e-27
9.91081e-28
-3.52323e-26
-1.29043e-26
1.75152e-25
1.49979e-25
-7.80707e-25
-1.32119e-24
2.64065e-24
8.99967e-24
-2.31565e-24
-4.49908e-23
-5.17599e-23
1.25843e-22
4.37224e-22
2.17484e-22
-1.475e-21
-3.87262e-21
-2.11099e-21
1.09233e-20
3.39541e-20
4.16712e-20
-1.87451e-20
-1.97719e-19
-4.7888e-19
-7.18407e-19
-6.52802e-19
-1.54671e-20
1.27512e-18
2.9722e-18
4.52729e-18
5.31718e-18
4.9623e-18
3.54461e-18
1.58275e-18
-2.26697e-19
-1.34423e-18
-1.60484e-18
-1.21443e-18
-5.66446e-19
-1.51795e-20
2.6543e-19
2.89978e-19
1.76963e-19
4.84315e-20
-2.86358e-20
-4.69343e-20
-3.14862e-20
-9.88674e-21
3.52769e-21
5.56517e-21
-5.80041e-48
6.31567e-49
-1.9641e-47
6.54176e-47
-2.37289e-46
7.34081e-46
-1.81753e-45
2.23675e-45
1.04428e-44
-1.04135e-43
5.66334e-43
-2.39396e-42
8.35118e-42
-2.36967e-41
4.9048e-41
-3.45646e-41
-2.87159e-40
1.79827e-39
-6.35951e-39
1.49355e-38
-1.61648e-38
-4.60424e-38
3.08613e-37
-8.63611e-37
9.9385e-37
2.57562e-36
-1.56957e-35
3.33044e-35
3.16797e-36
-2.31848e-34
6.27579e-34
-1.52555e-34
-3.65845e-33
9.60667e-33
1.71797e-33
-6.3346e-32
1.11942e-31
1.84942e-31
-9.80285e-31
3.82458e-31
5.25628e-30
-8.74188e-30
-2.07407e-29
6.99717e-29
5.94342e-29
-4.32844e-28
-8.86063e-29
2.40997e-27
-2.09015e-28
-1.28985e-26
1.34096e-27
6.78569e-26
9.8984e-27
-3.44437e-25
-2.26887e-25
1.58015e-24
2.34862e-24
-5.59912e-24
-1.71333e-23
6.71424e-24
8.91405e-23
9.55083e-23
-2.58575e-22
-8.60628e-22
-4.05973e-22
2.94578e-21
7.73347e-21
4.46877e-21
-2.12014e-20
-6.83895e-20
-8.98134e-20
1.95921e-20
3.74331e-19
9.84177e-19
1.63798e-18
1.89934e-18
1.29083e-18
-3.8882e-19
-2.80949e-18
-5.13198e-18
-6.36809e-18
-5.90159e-18
-3.84977e-18
-1.02645e-18
1.48054e-18
2.85365e-18
2.8895e-18
1.97509e-18
7.7215e-19
-1.57527e-19
-5.72127e-19
-5.43661e-19
-3.01726e-19
-6.12544e-20
7.0567e-20
9.28379e-20
5.73689e-20
1.53529e-20
-8.85997e-21
-1.09361e-20
3.86482e-47
-1.53911e-47
1.84473e-46
-7.56948e-46
3.27909e-45
-1.33733e-44
5.18592e-44
-1.89707e-43
6.49366e-43
-2.05516e-42
5.90229e-42
-1.48785e-41
3.0597e-41
-3.9948e-41
-3.09255e-41
4.17462e-40
-1.5962e-39
3.82226e-39
-4.55232e-39
-8.40261e-39
6.36776e-38
-1.79012e-37
2.0815e-37
4.92944e-37
-3.04348e-36
6.44916e-36
3.85745e-37
-4.36007e-35
1.20001e-34
-3.8921e-35
-6.72058e-34
1.8714e-33
-2.73702e-35
-1.16623e-32
2.37205e-32
2.69962e-32
-1.92017e-31
1.48418e-31
9.2844e-31
-2.14091e-30
-2.83198e-30
1.5556e-29
1.37984e-30
-8.99491e-29
5.48305e-29
4.72514e-28
-5.07996e-28
-2.43915e-27
3.16824e-27
1.29869e-26
-1.56059e-26
-7.18179e-26
5.54706e-26
3.96447e-25
-3.63786e-26
-2.01958e-24
-1.59789e-24
8.29161e-24
1.71967e-23
-1.78076e-23
-1.06041e-22
-7.91347e-23
3.55239e-22
9.90928e-22
3.1385e-22
-3.69283e-21
-9.33441e-21