/*--------------------------------*- C++ -*----------------------------------*\
  =========                 |
  \\      /  F ield         | OpenFOAM: The Open Source CFD Toolbox
   \\    /   O peration     | Website:  https://openfoam.org
    \\  /    A nd           | Version:  13
     \\/     M anipulation  |
\*---------------------------------------------------------------------------*/
FoamFile
{
    format      ascii;
    class       volScalarField;
    location    "6.5";
    object      T;
}
// * * * * * * * * * * * * * * * * * * * * * * * * * * * * * * * * * * * * * //

dimensions      [0 0 0 1 0 0 0];

internalField   nonuniform List<scalar> 
10000
(
8.76252e-59
-8.801e-57
-5.28698e-57
-8.16856e-57
-2.00919e-55
-6.92228e-55
8.72844e-56
6.82257e-54
1.83457e-53
-2.2018e-54
-1.30492e-52
-2.88296e-52
1.92893e-52
2.29381e-51
4.08368e-51
-4.29236e-51
-3.28726e-50
-5.09133e-50
5.11424e-50
3.43011e-49
4.99562e-49
-2.89337e-49
-2.26187e-48
-4.02957e-48
-6.48193e-48
-1.91195e-47
-2.87561e-47
1.20363e-46
7.22476e-46
1.34795e-45
-5.02228e-46
-6.05057e-45
-5.61255e-45
1.23705e-45
-8.2429e-44
-3.58088e-43
-1.05717e-43
2.60635e-42
5.7325e-42
-6.02568e-42
-4.09512e-41
-1.86949e-41
2.2173e-40
4.7173e-40
-3.72632e-40
-2.68047e-39
-1.39949e-39
1.18814e-38
2.27771e-38
-3.38594e-38
-1.90393e-37
-1.76856e-37
6.5571e-37
2.25989e-36
1.55568e-36
-7.5269e-36
-2.4511e-35
-2.34872e-35
4.9747e-35
2.16912e-34
3.33043e-34
2.2119e-36
-1.19697e-33
-3.00489e-33
-3.5848e-33
6.45002e-34
1.3255e-32
3.34333e-32
4.9843e-32
3.63792e-32
-4.32455e-32
-2.15944e-31
-4.69788e-31
-7.38022e-31
-9.23224e-31
-9.55564e-31
-8.3492e-31
-6.15516e-31
-3.60604e-31
-1.2412e-31
4.57082e-32
1.2245e-31
1.20379e-31
7.81601e-32
3.02996e-32
-3.26566e-33
-1.74426e-32
-1.71373e-32
-9.94608e-33
-2.36602e-33
2.17377e-33
3.01525e-33
1.68075e-33
2.43293e-34
-4.4813e-34
-6.48444e-34
-6.98139e-34
-7.03058e-34
-6.91155e-34
-6.86009e-34
1.16808e-56
8.12095e-56
8.98159e-56
-2.71679e-55
-1.23767e-54
-1.78948e-54
9.37792e-55
8.5172e-54
2.02832e-53
5.49622e-53
1.43439e-52
3.04462e-54
-1.68745e-51
-6.15271e-51
-6.04579e-51
2.6725e-50
1.14738e-49
1.40941e-49
-3.17346e-49
-1.66398e-48
-2.62267e-48
2.2775e-48
2.03605e-47
4.06789e-47
-4.25725e-48
-2.15574e-46
-4.55437e-46
1.18094e-46
2.55017e-45
4.70466e-45
-2.94665e-45
-2.97598e-44
-4.92224e-44
4.87669e-44
4.02753e-43
7.64156e-43
-3.1574e-43
-4.94283e-42
-9.39425e-42
6.74541e-42
6.57526e-41
1.10598e-40
-4.70231e-41
-4.24432e-40
-2.84766e-40
1.06972e-39
5.98372e-40
-8.75276e-39
-1.95926e-38
1.66149e-38
1.38331e-37
1.70101e-37
-3.69224e-37
-1.54916e-36
-1.49897e-36
3.42616e-36
1.33193e-35
1.74932e-35
-1.12627e-36
-4.66517e-35
-1.15003e-34
-2.69703e-34
-6.92647e-34
-1.40467e-33
-1.56954e-33
7.21249e-34
6.6973e-33
1.37992e-32
1.54408e-32
5.74212e-33
-1.85507e-32
-6.6766e-32
-1.57932e-31
-2.92946e-31
-4.17241e-31
-4.43403e-31
-3.37623e-31
-1.63737e-31
-2.08722e-32
4.19402e-32
4.09372e-32
1.93204e-32
7.46949e-33
9.05141e-33
1.58399e-32
1.91136e-32
1.19387e-32
3.27854e-34
-4.59578e-33
-3.82369e-33
-1.96189e-33
-4.46754e-34
1.46531e-34
1.91125e-34
2.08603e-34
1.69787e-34
1.84477e-34
1.93005e-34
1.80943e-34
1.76115e-34
1.68685e-56
2.3036e-55
2.59763e-55
-3.32143e-55
-7.10873e-55
1.23368e-54
-2.0327e-54
-4.01124e-53
-8.88382e-53
1.85401e-52
1.34787e-51
2.01724e-51
-5.52084e-51
-3.00888e-50
-4.10726e-50
8.84278e-50
4.67164e-49
6.30101e-49
-1.02292e-48
-5.66335e-48
-8.28354e-48
7.1541e-48
5.42287e-47
9.91943e-47
2.4118e-47
-2.80703e-46
-6.20877e-46
-3.60975e-46
5.77025e-46
-6.14911e-46
-9.68012e-45
-2.41324e-44
6.03315e-45
2.65276e-43
1.06425e-42
1.94657e-42
-9.81748e-43
-1.51858e-41
-3.37097e-41
3.97798e-42
1.88935e-40
4.00365e-40
-2.08633e-41
-1.84189e-39
-4.1588e-39
-3.29496e-39
4.56586e-39
2.19396e-38
5.82699e-38
1.11006e-37
2.06087e-38
-6.96047e-37
-2.22026e-36
-2.04289e-36
6.86405e-36
2.83005e-35
3.90446e-35
-2.60617e-35
-2.14171e-34
-4.02065e-34
-2.40692e-34
4.83524e-34
1.19165e-33
5.3367e-34
-2.30237e-33
-7.04026e-33
-1.5462e-32
-3.30551e-32
-5.25888e-32
-1.67752e-32
1.92416e-31
6.69268e-31
1.3354e-30
1.90481e-30
2.09005e-30
1.87379e-30
1.50505e-30
1.19362e-30
9.0664e-31
5.37252e-31
1.47146e-31
-1.02643e-31
-1.68806e-31
-1.30326e-31
-6.04615e-32
2.61563e-34
2.65923e-32
2.44461e-32
1.54995e-32
6.33784e-33
-2.42222e-33
-5.24013e-33
-2.91057e-33
-2.4085e-34
1.09042e-33
1.70292e-33
2.20066e-33
2.33982e-33
2.23584e-33
2.18777e-33
-1.94446e-56
6.27897e-57
-1.16892e-55
8.56105e-55
7.30022e-54
1.7108e-53
-1.32942e-53
-1.73249e-52
-3.68232e-52
1.89039e-52
2.63885e-51
4.83907e-51
-4.09531e-51
-3.5414e-50
-5.67017e-50
5.16977e-50
3.76401e-49
5.77614e-49
-2.62169e-49
-2.44667e-48
-3.96861e-48
-3.25744e-48
-3.89185e-48
1.33402e-47
1.71283e-46
6.01003e-46
6.18978e-46
-2.42874e-45
-1.10879e-44
-1.85877e-44
7.5653e-46
8.58468e-44
2.61174e-43
4.32143e-43
1.10422e-43
-1.32777e-42
-2.18315e-42
1.24989e-42
-6.52872e-42
-7.58667e-41
-1.23259e-40
4.32859e-40
1.88175e-39
7.75541e-41
-1.57148e-38
-4.03186e-38
3.05156e-39
2.45654e-37
5.57919e-37
4.42752e-38
-2.47654e-36
-5.44154e-36
-8.65884e-37
2.09218e-35
4.89031e-35
2.50482e-35
-1.31311e-34
-3.87948e-34
-4.04306e-34
4.33506e-34
2.32445e-33
3.78327e-33
1.21768e-33
-8.32672e-33
-2.14164e-32
-2.58487e-32
-9.8656e-33
2.33192e-32
6.63751e-32
1.67739e-31
4.88016e-31
1.21582e-30
2.28989e-30
3.1864e-30
3.2017e-30
2.17812e-30
8.35985e-31
9.15384e-32
1.2651e-31
4.35977e-31
5.91767e-31
5.31651e-31
3.24466e-31
7.00105e-32
-1.15158e-31
-1.79351e-31
-1.37989e-31
-5.25506e-32
1.0305e-32
3.18152e-32
2.25409e-32
8.11715e-33
1.89584e-33
7.8142e-35
-6.98139e-34
-3.7923e-35
1.10504e-33
1.51292e-33
1.31831e-33
1.22102e-33
-7.30174e-56
-1.45879e-54
-2.5644e-54
2.71996e-54
2.26746e-53
4.37645e-53
7.44307e-55
-1.80951e-52
-4.72507e-52
-9.10111e-52
-1.78768e-51
3.04689e-52
2.49338e-50
9.81279e-50
1.17572e-49
-3.96988e-49
-1.92532e-48
-2.44898e-48
5.72486e-48
2.83952e-47
3.6203e-47
-6.51169e-47
-3.30858e-46
-4.28786e-46
5.56528e-46
2.89184e-45
2.99602e-45
-6.80272e-45
-2.44405e-44
-1.27636e-44
9.058e-44
2.65662e-43
2.03414e-43
-9.79582e-43
-4.49747e-42
-7.51242e-42
7.70657e-42
6.03507e-41
6.14889e-41
-2.75275e-40
-8.63031e-40
4.29699e-41
3.94673e-39
2.06076e-39
-2.56589e-38
-5.05986e-38
9.89744e-38
5.45629e-37
5.43414e-37
-1.87051e-36
-6.40171e-36
-2.99687e-36
2.50908e-35
6.31215e-35
1.11538e-35
-2.56441e-34
-5.76411e-34
-1.46881e-34
2.00868e-33
5.02842e-33
3.94799e-33
-8.52789e-33
-3.21875e-32
-4.44646e-32
5.87915e-33
1.7837e-31
4.80048e-31
7.60089e-31
5.85502e-31
-7.91978e-31
-4.18884e-30
-9.92524e-30
-1.73401e-29
-2.49421e-29
-3.10922e-29
-3.44215e-29
-3.37794e-29
-2.85517e-29
-1.95631e-29
-9.33817e-30
-9.46028e-31
3.6807e-30
4.61385e-30
3.36282e-30
1.51997e-30
6.25903e-32
-5.93301e-31
-5.86934e-31
-3.37462e-31
-9.95847e-32
3.80941e-32
7.34024e-32
5.41883e-32
2.29425e-32
-7.29502e-35
-9.96741e-33
-1.20001e-32
-1.14686e-32
-1.11795e-32
-1.11623e-32
4.71051e-56
-3.56875e-54
-6.38488e-54
-1.4878e-54
8.59082e-54
1.80544e-53
1.39311e-52
6.44171e-52
7.97471e-52
-4.12453e-51
-2.01107e-50
-2.44899e-50
8.749e-50
4.26642e-49
5.83465e-49
-1.11338e-48
-6.15112e-48
-8.5397e-48
1.2639e-47
7.10061e-47
9.44361e-47
-1.17359e-46
-6.39722e-46
-8.78374e-46
2.96357e-46
2.68596e-45
3.06836e-45
-1.65297e-45
-1.18705e-45
6.20064e-44
2.73655e-43
2.31499e-43
-2.06691e-42
-7.82666e-42
-4.7863e-42
3.32344e-41
6.17324e-41
-1.26101e-40
-4.40086e-40
5.39915e-40
3.5273e-39
-7.77772e-40
-3.01912e-38
-4.88866e-38
1.1949e-37
5.70888e-37
4.75774e-37
-2.20147e-36
-6.99748e-36
-3.16348e-36
2.73046e-35
7.01744e-35
1.91022e-35
-2.75238e-34
-6.7147e-34
-2.70084e-34
2.25836e-33
6.26589e-33
5.36241e-33
-1.18533e-32
-4.74405e-32
-6.72115e-32
9.19021e-33
2.51422e-31
5.87365e-31
7.04769e-31
1.53885e-31
-1.3541e-30
-3.79045e-30
-7.12169e-30
-1.17231e-29
-1.79166e-29
-2.45747e-29
-2.87271e-29
-2.79505e-29
-2.35249e-29
-1.97708e-29
-1.92372e-29
-1.98571e-29
-1.81108e-29
-1.342e-29
-7.78683e-30
-2.8619e-30
6.91422e-31
2.43634e-30
2.47158e-30
1.62833e-30
6.75445e-31
-5.31114e-32
-3.92989e-31
-3.59818e-31
-1.82177e-31
-3.50946e-32
3.82849e-32
5.18345e-32
3.73591e-32
2.37062e-32
2.06691e-32
2.21887e-32
2.28181e-32
2.32688e-55
-8.41268e-55
1.19033e-55
-1.45741e-53
-1.03806e-52
-2.17108e-52
2.87177e-52
2.52505e-51
4.64339e-51
-4.20819e-51
-3.58318e-50
-5.67797e-50
5.39269e-50
3.75314e-49
5.97133e-49
2.29072e-50
-1.54122e-48
-4.06699e-48
-1.13845e-47
-2.56165e-47
3.32319e-48
2.33057e-46
6.69138e-46
1.90305e-46
-3.96937e-45
-1.13069e-44
-4.44802e-45
5.20675e-44
1.50781e-43
1.34659e-43
-3.22666e-43
-1.74331e-42
-4.50938e-42
-3.56798e-42
2.2013e-41
7.30837e-41
-1.57542e-41
-4.62586e-40
-2.4562e-40
3.53163e-39
6.64648e-39
-1.86906e-38
-8.31778e-38
-8.45978e-39
5.79595e-37
1.22033e-36
-1.08789e-36
-9.08386e-36
-1.18715e-35
2.31535e-35
1.00091e-34
7.31354e-35
-3.3813e-34
-9.98968e-34
-4.33136e-34
3.66694e-33
9.82801e-33
5.69933e-33
-2.91125e-32
-9.14476e-32
-9.76618e-32
1.3043e-31
7.05807e-31
1.27875e-30
6.52943e-31
-2.89922e-30
-9.92164e-30
-1.69501e-29
-1.45706e-29
1.09229e-29
7.15777e-29
1.70715e-28
2.99364e-28
4.37061e-28
5.5389e-28
6.14245e-28
5.89004e-28
4.75252e-28
3.05574e-28
1.32486e-28
9.0275e-31
-6.85829e-29
-8.10737e-29
-5.89224e-29
-2.72724e-29
-2.63249e-30
9.27197e-30
1.05677e-29
6.61266e-30
2.0311e-30
-7.0032e-31
-1.41512e-30
-1.02982e-30
-3.98372e-31
3.12411e-32
1.89581e-31
2.03592e-31
1.90407e-31
1.8868e-31
1.89807e-31
-1.19002e-54
1.45525e-53
4.07159e-53
7.00054e-54
-2.47553e-52
-7.17582e-52
-6.00372e-52
1.91018e-51
8.30576e-51
1.8913e-50
3.06831e-50
-1.30352e-50
-3.89656e-49
-1.49701e-48
-1.88104e-48
5.96781e-48
3.02518e-47
3.78356e-47
-9.87798e-47
-4.48579e-46
-4.33262e-46
1.40501e-45
4.94877e-45
3.65326e-45
-1.33536e-44
-4.18024e-44
-2.89372e-44
1.64086e-43
6.03842e-43
1.18389e-43
-4.91096e-42
-1.12266e-41
1.71294e-41
1.08795e-40
3.60892e-41
-6.82594e-40
-9.95252e-40
3.73664e-39
1.21144e-38
-8.2198e-39
-9.01738e-38
-7.47347e-38
4.62341e-37
1.19899e-36
-7.75722e-37
-8.19024e-36
-9.79948e-36
2.69193e-35
9.96872e-35
4.43727e-35
-4.21725e-34
-1.05716e-33
-1.32801e-34
4.65133e-33
1.05592e-32
2.6519e-33
-3.91796e-32
-1.00532e-31
-7.72651e-32
2.05747e-31
7.8384e-31
1.17535e-30
1.89468e-31
-3.49291e-30
-9.66503e-30
-1.4511e-29
-9.76279e-30
1.51965e-29
6.81741e-29
1.48351e-28
2.43733e-28
3.34907e-28
4.04776e-28
4.48727e-28
4.75879e-28
4.97023e-28
5.09498e-28
4.95933e-28
4.39198e-28
3.38789e-28
2.15289e-28
9.9527e-29
1.40046e-29
-3.51892e-29
-5.15537e-29
-4.36986e-29
-2.49619e-29
-7.02735e-30
4.20702e-30
7.53168e-30
5.69331e-30
2.40225e-30
-4.01487e-32
-1.02167e-30
-1.00973e-30
-7.11899e-31
-5.35468e-31
-5.09943e-31
-5.20015e-31
-5.22936e-31
-5.31069e-54
3.77141e-53
1.05273e-52
1.29703e-52
-1.84038e-53
-7.69639e-52
-3.54952e-51
-8.6482e-51
-9.84504e-52
7.12108e-50
2.42622e-49
2.24571e-49
-1.07244e-48
-4.80416e-48
-7.14181e-48
8.93912e-48
6.21602e-47
9.76663e-47
-1.03423e-46
-6.78527e-46
-7.66979e-46
1.74423e-45
6.3163e-45
3.65169e-45
-1.58611e-44
-3.15322e-44
1.88845e-44
1.92633e-43
2.67527e-43
-1.50799e-42
-7.99913e-42
-4.96479e-42
6.781e-41
1.85303e-40
-1.95296e-40
-1.61252e-39
-6.654e-40
1.05844e-38
1.73096e-38
-5.22141e-38
-1.79621e-37
1.44357e-37
1.46901e-36
1.27987e-36
-7.53171e-36
-2.07642e-35
9.06016e-36
1.35069e-34
1.908e-34
-3.7977e-34
-1.70291e-33
-1.29116e-33
5.99999e-33
1.83834e-32
9.37992e-33
-6.5856e-32
-1.87224e-31
-1.30141e-31
5.03257e-31
1.71667e-30
2.04871e-30
-1.78491e-30
-1.22159e-29
-2.3979e-29
-1.71441e-29
3.90432e-29
1.59818e-28
2.97867e-28
3.02661e-28
-6.98143e-29
-1.06921e-27
-2.80793e-27
-5.13428e-27
-7.59725e-27
-9.54179e-27
-1.03282e-26
-9.61173e-27
-7.5429e-27
-4.73446e-27
-1.98458e-27
6.47354e-29
1.13387e-27
1.31878e-27
9.5988e-28
4.44132e-28
4.02925e-29
-1.5555e-28
-1.76455e-28
-1.09151e-28
-3.27366e-29
1.24344e-29
2.38247e-29
1.65895e-29
5.70537e-30
-1.31122e-30
-3.76313e-30
-3.95639e-30
-3.75998e-30
-3.70904e-30
-3.71818e-30
1.12923e-54
4.6758e-53
5.04714e-53
9.25512e-53
7.16411e-52
1.72576e-51
-2.48978e-51
-2.27473e-50
-4.47795e-50
2.39907e-50
2.95437e-49
5.95832e-49
3.01096e-49
-1.22893e-48
-6.12782e-48
-2.40209e-47
-5.63395e-47
8.0799e-48
4.82589e-46
1.30342e-45
4.96132e-46
-5.08332e-45
-1.30114e-44
-1.37786e-44
9.29851e-45
1.77408e-43
6.47447e-43
-2.02611e-43
-7.41535e-42
-1.20924e-41
4.54914e-41
1.6541e-40
-1.33317e-40
-1.36309e-39
-3.83229e-40
9.93561e-39
1.40948e-38
-5.76339e-38
-1.82126e-37
1.44114e-37
1.44502e-36
1.26656e-36
-7.0926e-36
-1.90321e-35
1.05494e-35
1.26102e-34
1.56536e-34
-4.11072e-34
-1.57884e-33
-8.22318e-34
6.43144e-33
1.70044e-32
4.36797e-33
-6.95986e-32
-1.70405e-31
-7.44463e-32
5.49057e-31
1.56538e-30
1.49732e-30
-2.42575e-30
-1.14885e-29
-1.98154e-29
-9.97298e-30
4.17793e-29
1.43465e-28
2.51629e-28
2.4102e-28
-8.92118e-29
-9.4882e-28
-2.44143e-27
-4.46683e-27
-6.72813e-27
-8.86514e-27
-1.06073e-26
-1.17995e-26
-1.23063e-26
-1.19701e-26
-1.0714e-26
-8.6526e-27
-6.08986e-27
-3.46051e-27
-1.23633e-27
2.54077e-28
9.5921e-28
1.04405e-27
7.58787e-28
3.59087e-28
3.69243e-29
-1.24619e-28
-1.42839e-28
-8.93414e-29
-2.84795e-29
8.5426e-30
1.91179e-29
1.53377e-29
9.51885e-30
6.78046e-30
6.47558e-30
6.65935e-30
6.69648e-30
5.23022e-53
3.77545e-53
-3.54468e-52
-1.02487e-51
1.55841e-52
7.96365e-51
2.11335e-50
7.10562e-51
-1.177e-49
-4.22691e-49
-6.63552e-49
5.65108e-49
7.1722e-48
2.20336e-47
1.95603e-47
-1.06015e-46
-4.4738e-46
-4.62111e-46
1.72289e-45
6.66143e-45
4.63335e-45
-2.50061e-44
-7.22407e-44
-3.66969e-44
2.22171e-43
7.19243e-43
8.14668e-43
-3.32716e-42
-1.70076e-41
-6.69154e-42
1.45123e-40
2.99762e-40
-7.51367e-40
-3.26823e-39
2.17816e-39
2.77428e-38
1.45174e-38
-1.93991e-37
-3.54772e-37
9.10442e-37
3.63528e-36
-1.21878e-36
-2.57343e-35
-3.02471e-35
1.13963e-34
3.62576e-34
-8.40289e-35
-2.23572e-33
-3.44252e-33
6.00854e-33
2.96068e-32
2.61517e-32
-9.64333e-32
-3.22709e-31
-2.14541e-31
1.02594e-30
3.18594e-30
2.61935e-30
-7.49723e-30
-2.80597e-29
-3.63128e-29
2.11378e-29
1.87707e-28
3.90152e-28
3.25728e-28
-4.94562e-28
-2.36748e-27
-4.6839e-27
-5.2351e-27
-1.96793e-28
1.46427e-26
4.15078e-26
7.81854e-26
1.17157e-25
1.47478e-25
1.5902e-25
1.47018e-25
1.14457e-25
7.09664e-26
2.8756e-26
-2.34263e-27
-1.81874e-26
-2.05275e-26
-1.47002e-26
-6.59846e-27
-3.4599e-28
2.57465e-27
2.75297e-27
1.62943e-27
4.45932e-28
-2.24582e-28
-3.75387e-28
-2.49177e-28
-7.83576e-29
2.69083e-29
6.23876e-29
6.47236e-29
6.17444e-29
6.09505e-29
6.10587e-29
1.07823e-52
-4.69208e-53
-8.31887e-52
-2.68062e-51
-3.55824e-51
8.82855e-51
5.73808e-50
1.12565e-49
-7.55415e-50
-1.00265e-48
-2.49879e-48
-1.1548e-48
1.2117e-47
4.50648e-47
6.7396e-47
-5.67471e-47
-5.27156e-46
-1.04206e-45
5.16006e-46
7.43231e-45
1.07893e-44
-3.82115e-44
-1.58808e-43
4.6053e-44
1.30476e-42
1.05406e-42
-9.50969e-42
-1.62196e-41
6.75469e-41
1.88965e-40
-4.24254e-40
-1.94268e-39
1.90612e-39
1.82056e-38
3.63605e-39
-1.4268e-37
-2.06037e-37
8.06513e-37
2.60949e-36
-1.95612e-36
-2.06852e-35
-1.89372e-35
1.01216e-34
2.79748e-34
-1.39369e-34
-1.86301e-33
-2.50791e-33
5.63786e-33
2.3892e-32
1.67976e-32
-8.69223e-32
-2.58498e-31
-1.25458e-31
9.24645e-31
2.5812e-30
1.74116e-30
-6.934e-30
-2.32969e-29
-2.77205e-29
2.30716e-29
1.61402e-28
3.22125e-28
2.52661e-28
-4.53146e-28
-2.05617e-27
-4.09675e-27
-4.78451e-27
-8.10354e-28
1.19976e-26
3.71368e-26
7.55572e-26
1.24387e-25
1.76983e-25
2.2432e-25
2.5713e-25
2.68215e-25
2.54479e-25
2.18014e-25
1.65674e-25
1.07315e-25
5.33501e-26
1.20717e-26
-1.2584e-26
-2.16242e-26
-1.95913e-26
-1.22523e-26
-4.55642e-27
6.164e-28
2.65014e-27
2.44235e-27
1.32828e-27
3.03222e-28
-2.29779e-28
-3.26371e-28
-2.24785e-28
-1.19903e-28
-7.65617e-29
-7.27634e-29
-7.60589e-29
-7.66523e-29
-1.78105e-52
-8.0197e-52
1.1445e-52
3.16403e-51
5.19603e-52
-2.23493e-50
-4.10066e-50
7.50794e-50
4.58099e-49
7.4821e-49
-5.75271e-49
-6.59254e-48
-2.09135e-47
-3.12563e-47
6.60241e-47
5.52172e-46
1.37281e-45
4.93786e-47
-8.88684e-45
-2.09579e-44
-2.3415e-45
5.83356e-44
7.19602e-44
2.78942e-43
1.28067e-42
-1.96291e-42
-2.17413e-41
-7.90831e-42
2.1925e-40
3.16995e-40
-1.73784e-39
-4.60185e-39
1.08868e-38
5.10174e-38
-3.86164e-38
-4.69128e-37
-2.60319e-37
3.29855e-36
6.27504e-36
-1.51334e-35
-6.4121e-35
1.12752e-35
4.34038e-34
5.75218e-34
-1.79436e-33
-6.3133e-33
1.14684e-34
3.61611e-32
6.28832e-32
-8.09599e-32
-4.80627e-31
-5.11185e-31
1.36567e-30
5.20577e-30
4.38922e-30
-1.42886e-29
-5.01273e-29
-4.93366e-29
9.74352e-29
4.22873e-28
6.06391e-28
-1.68118e-28
-2.65411e-27
-5.94984e-27
-5.68984e-27
5.57417e-27
3.30253e-26
6.90761e-26
8.28328e-26
1.92709e-26
-1.8334e-25
-5.58944e-25
-1.07772e-24
-1.63294e-24
-2.06762e-24
-2.23525e-24
-2.06557e-24
-1.60027e-24
-9.7834e-25
-3.77053e-25
6.12116e-26
2.77739e-25
3.00195e-25
2.08279e-25
8.82875e-26
-1.10111e-27
-4.0524e-26
-4.04971e-26
-2.28267e-26
-5.3803e-27
4.01582e-27
5.7344e-27
3.59057e-27
1.00967e-27
-4.99378e-28
-9.78104e-28
-9.9599e-28
-9.50355e-28
-9.39948e-28
-9.41734e-28
-1.20421e-51
-3.49395e-51
2.63891e-51
2.7426e-50
4.30682e-50
-8.20766e-50
-4.73945e-49
-6.0987e-49
1.52426e-48
7.90068e-48
1.22664e-47
-1.41036e-47
-1.21188e-46
-2.87699e-46
-1.11332e-46
1.54099e-45
5.47021e-45
6.45162e-45
-1.82326e-44
-1.0075e-43
-1.3546e-43
4.68831e-43
2.03219e-42
-2.67829e-43
-1.59828e-41
-1.33775e-41
1.21037e-40
2.02208e-40
-9.1284e-40
-2.48637e-39
6.04216e-39
2.74264e-38
-2.45594e-38
-2.56939e-37
-9.63805e-38
1.90007e-36
3.08805e-36
-1.00964e-35
-3.58486e-35
2.04796e-35
2.74664e-34
2.85716e-34
-1.30263e-33
-3.9034e-33
1.23687e-33
2.49549e-32
3.79195e-32
-6.68696e-32
-3.29357e-31
-2.9685e-31
1.06229e-30
3.63259e-30
2.5891e-30
-1.12353e-29
-3.64606e-29
-3.30778e-29
7.92319e-29
3.2447e-28
4.61731e-28
-1.41531e-28
-2.12458e-27
-4.90484e-27
-5.06257e-27
3.90395e-27
2.79456e-26
6.36875e-26
8.69139e-26
4.50334e-26
-1.38159e-25
-5.40736e-25
-1.20742e-24
-2.11352e-24
-3.14589e-24
-4.11595e-24
-4.80761e-24
-5.04501e-24
-4.75292e-24
-3.98533e-24
-2.91134e-24
-1.76253e-24
-7.59886e-25
-4.95605e-26
3.26258e-25
4.18324e-25
3.3223e-25
1.81314e-25
4.8869e-26
-2.75239e-26
-4.9436e-26
-3.85222e-26
-1.7854e-26
-1.91557e-27
5.00364e-27
5.27507e-27
3.10175e-27
1.3284e-27
6.70128e-28
6.31678e-28
6.85843e-28
6.94291e-28
-1.28106e-51
-6.1235e-51
-3.39203e-51
3.32124e-50
1.01709e-49
1.20895e-50
-6.2529e-49
-1.42249e-48
8.24681e-49
1.10585e-47
2.37335e-47
2.11989e-49
-1.35943e-46
-4.17935e-46
-5.64042e-46
5.72475e-46
5.63407e-45
1.5553e-44
2.79627e-45
-1.32931e-43
-3.03011e-43
8.09957e-43
4.21863e-42
-2.53559e-42
-4.22312e-41
-1.22031e-41
3.87248e-40
3.95465e-40
-3.33829e-39
-6.12944e-39
2.61342e-38
7.82444e-38
-1.62146e-37
-8.4756e-37
4.65432e-37
7.48438e-36
5.17969e-36
-5.11142e-35
-1.04351e-34
2.28174e-34
1.04145e-33
-5.06495e-35
-6.87046e-33
-1.00908e-32
2.64985e-32
1.03165e-31
1.82859e-32
-5.49544e-31
-1.07025e-30
9.7731e-31
7.3478e-30
9.16225e-30
-1.78268e-29
-7.92261e-29
-8.0984e-29
1.83917e-28
7.47551e-28
8.6482e-28
-1.13025e-27
-6.02982e-27
-9.65562e-27
-2.03301e-28
3.47504e-26
8.58879e-26
9.46145e-26
-4.62001e-26
-4.22305e-25
-9.52852e-25
-1.23941e-24
-5.45858e-25
1.97065e-24
6.79399e-24
1.35609e-23
2.08748e-23
2.66475e-23
2.89054e-23
2.66842e-23
2.0532e-23
1.23162e-23
4.41619e-24
-1.26787e-24
-3.96725e-24
-4.08488e-24
-2.72787e-24
-1.07136e-24
1.13407e-25
6.00112e-25
5.59274e-25
2.97772e-25
5.60358e-26
-6.65215e-26
-8.24638e-26
-4.83806e-26
-1.1625e-26
8.64998e-27
1.45187e-26
1.44288e-26
1.37553e-26
1.36358e-26
1.36661e-26
5.93779e-51
7.40171e-51
-3.48964e-50
-1.30079e-49
-9.00345e-50
5.79527e-49
2.00535e-48
1.81119e-48
-6.63419e-48
-2.71223e-47
-2.99549e-47
9.17867e-47
4.30976e-46
5.26343e-46
-1.17376e-45
-5.26407e-45
-8.29763e-45
-1.10817e-44
1.55679e-44
3.51054e-43
1.02098e-42
-2.06519e-42
-1.4524e-41
3.76572e-42
1.48614e-40
8.42505e-41
-1.41578e-39
-2.01142e-39
1.20288e-38
3.07842e-38
-7.93195e-38
-3.60426e-37
2.73976e-37
3.30203e-36
1.75013e-36
-2.34699e-35
-4.28894e-35
1.16104e-34
4.65082e-34
-1.47483e-34
-3.36841e-33
-4.22069e-33
1.47672e-32
5.06279e-32
-2.22737e-33
-2.99818e-31
-5.32999e-31
6.55498e-31
4.12151e-30
4.7406e-30
-1.12757e-29
-4.69024e-29
-4.59696e-29
1.19079e-28
4.7659e-28
5.62983e-28
-7.46308e-28
-4.16637e-27
-7.11397e-27
-1.01617e-27
2.52748e-26
6.94138e-26
8.92132e-26
-1.20507e-26
-3.48192e-25
-9.25623e-25
-1.44476e-24
-1.11989e-24
1.32757e-24
7.36561e-24
1.80324e-23
3.31991e-23
5.1077e-23
6.83287e-23
8.09055e-23
8.53687e-23
8.01651e-23
6.63014e-23
4.70828e-23
2.69663e-23
1.0017e-23
-1.32261e-24
-6.65707e-24
-7.25679e-24
-5.20494e-24
-2.48737e-24
-3.84713e-25
6.6694e-25
8.44156e-25
5.69332e-25
2.17035e-25
-1.49053e-26
-9.49286e-26
-8.02255e-26
-3.94353e-26
-1.14702e-26
-2.20765e-27
-2.01034e-27
-2.83628e-27
-2.93996e-27
2.24936e-50
6.74786e-50
-4.09586e-50
-5.29814e-49
-9.99835e-49
9.64346e-49
8.52429e-48
1.44741e-47
-1.65214e-47
-1.26141e-46
-2.14349e-46
2.00483e-46
1.76896e-45
3.53979e-45
3.41036e-46
-1.51771e-44
-5.0492e-44
-1.19249e-43
5.60366e-47
1.5657e-42
4.09933e-42
-9.7417e-42
-5.69238e-41
3.56378e-41
5.98483e-40
1.03587e-40
-5.91174e-39
-5.52481e-39
5.35229e-38
9.8653e-38
-4.1245e-37
-1.29435e-36
2.33724e-36
1.35087e-35
-4.6977e-36
-1.13938e-34
-9.66699e-35
7.47663e-34
1.66574e-33
-3.13996e-33
-1.58885e-32
-1.63007e-33
1.01044e-31
1.64681e-31
-3.59106e-31
-1.56294e-30
-5.50909e-31
7.79009e-30
1.68079e-29
-1.04304e-29
-1.05525e-28
-1.50534e-28
2.13693e-28
1.13625e-27
1.36604e-27
-2.15405e-27
-1.05054e-26
-1.40623e-26
1.11122e-26
8.06579e-26
1.44795e-25
4.32681e-26
-4.15676e-25
-1.16307e-24
-1.47695e-24
8.04554e-26
4.8384e-24
1.21687e-23
1.74564e-23
1.16494e-23
-1.59987e-23
-7.20944e-23
-1.52813e-22
-2.41295e-22
-3.11747e-22
-3.39557e-22
-3.12676e-22
-2.37957e-22
-1.386e-22
-4.39432e-23
2.28185e-23
5.26588e-23
5.11628e-23
3.25303e-23
1.14132e-23
-2.96389e-24
-8.30573e-24
-7.15319e-24
-3.52931e-24
-4.29223e-25
1.0204e-24
1.10213e-24
5.97111e-25
1.10431e-25
-1.39289e-25
-2.02197e-25
-1.95578e-25
-1.86376e-25
-1.85243e-25
-1.85712e-25
1.09999e-50
1.4639e-49
2.19762e-49
-3.46769e-49
-2.01254e-48
-2.26933e-48
6.18479e-48
2.29055e-47
7.63467e-48
-1.17188e-46
-3.30049e-46
-2.15609e-46
1.63496e-45
7.93259e-45
1.27129e-44
-3.38557e-44
-1.78719e-43
-4.9085e-44
1.00864e-42
-1.58337e-43
-9.59663e-42
8.48729e-42
1.31319e-40
-2.68252e-41
-1.55907e-39
-1.01784e-39
1.55304e-38
2.43053e-38
-1.30153e-37
-3.61831e-37
8.20272e-37
4.11555e-36
-2.39281e-36
-3.70964e-35
-2.60025e-35
2.5719e-34
5.35712e-34
-1.16102e-33
-5.46822e-33
4.05527e-35
3.6947e-32
5.78973e-32
-1.41367e-31
-5.97994e-31
-1.89728e-31
3.16934e-30
6.95773e-30
-4.36259e-30
-4.6281e-29
-7.0285e-29
9.27866e-29
5.49809e-28
7.41926e-28
-9.72771e-28
-5.67324e-27
-8.79514e-27
4.23088e-27
4.83313e-26
1.0185e-25
5.80437e-26
-2.59968e-25
-9.07784e-25
-1.42358e-24
-4.73581e-25
3.85783e-24
1.2435e-23
2.19684e-23
2.16089e-23
-8.22113e-24
-9.19853e-23
-2.49264e-22
-4.81804e-22
-7.63646e-22
-1.04123e-21
-1.24671e-21
-1.321e-21
-1.237e-21
-1.01193e-21
-7.02297e-22
-3.83096e-22
-1.20949e-22
4.64705e-23
1.1671e-22
1.14464e-22
7.55752e-23
3.1529e-23
5.95208e-25
-1.28067e-23
-1.31999e-23
-7.83649e-24
-2.33909e-24
8.02025e-25
1.59471e-24
1.13255e-24
4.51052e-25
4.28565e-26
-7.73608e-26
-7.49216e-26
-6.32405e-26
-6.21064e-26
-1.25831e-49
-3.83266e-50
9.06075e-49
2.62801e-48
1.36184e-48
-1.1614e-47
-3.73273e-47
-3.39108e-47
1.03862e-46
4.10007e-46
3.52311e-46
-1.56575e-45
-4.57877e-45
4.0432e-45
2.99753e-44
-3.99014e-44
-2.75078e-43
5.68984e-43
3.04528e-42
-9.385e-42
-4.84521e-41
9.60228e-41
7.03866e-40
-4.96502e-40
-8.22874e-39
-1.33943e-39
8.44451e-38
8.15321e-38
-7.70803e-37
-1.47707e-36
5.84973e-36
1.92064e-35
-3.17419e-35
-1.97456e-34
4.39469e-35
1.63146e-33
1.59933e-33
-1.03256e-32
-2.49716e-32
3.99616e-32
2.27258e-31
5.94262e-32
-1.38275e-30
-2.49596e-30
4.46167e-30
2.20318e-29
1.15369e-29
-1.02489e-28
-2.44865e-28
8.85696e-29
1.41131e-27
2.28115e-27
-2.26284e-27
-1.5187e-26
-2.1153e-26
2.19538e-26
1.37368e-25
2.1133e-25
-7.68949e-26
-9.96497e-25
-2.02344e-24
-1.13989e-24
4.40894e-24
1.45995e-23
2.14185e-23
7.00362e-24
-4.7803e-23
-1.41969e-22
-2.29002e-22
-2.08626e-22
4.44339e-23
6.13954e-22
1.46771e-21
2.42386e-21
3.19506e-21
3.50367e-21
3.21292e-21
2.39986e-21
1.32558e-21
3.17753e-22
-3.6929e-22
-6.44178e-22
-5.80121e-22
-3.43143e-22
-9.77866e-23
5.80762e-23
1.06711e-22
8.33973e-23
3.67452e-23
4.89085e-25
-1.45519e-23
-1.35926e-23
-6.62261e-24
-6.88417e-25
2.07214e-24
2.61568e-24
2.45359e-24
2.33739e-24
2.33042e-24
2.33715e-24
-3.88847e-49
-1.06754e-48
7.71786e-49
8.55232e-48
1.61932e-47
-1.13597e-47
-1.18031e-46
-2.07402e-46
1.43028e-46
1.29576e-45
2.1902e-45
-3.67405e-46
-1.19101e-44
-4.40774e-44
-5.97666e-44
2.63818e-43
1.06776e-42
-1.19744e-42
-1.08529e-41
8.855e-42
1.23327e-40
-4.44166e-41
-1.3886e-39
-2.18518e-40
1.53363e-38
1.40874e-38
-1.4945e-37
-2.82349e-37
1.18047e-36
3.86595e-36
-6.63834e-36
-4.14181e-35
9.44587e-36
3.5666e-34
3.71684e-34
-2.31522e-33
-6.00498e-33
8.58066e-33
5.57929e-32
2.53408e-32
-3.3894e-31
-7.21859e-31
9.64899e-31
6.22088e-30
5.292e-30
-2.73475e-29
-8.30212e-29
-7.24977e-30
4.46274e-28
9.60552e-28
-3.29009e-28
-5.67173e-27
-1.08979e-26
3.2431e-27
5.97839e-26
1.25651e-25
2.87747e-26
-4.89039e-25
-1.34303e-24
-1.33547e-24
2.09177e-24
1.08389e-23
2.06788e-23
1.47036e-23
-3.60517e-23
-1.5304e-22
-3.05991e-22
-3.57366e-22
-3.28539e-23
1.03498e-21
3.16661e-21
6.43317e-21
1.04881e-20
1.45484e-20
1.75892e-20
1.87028e-20
1.74693e-20
1.41537e-20
9.6218e-21
5.009e-21
1.30292e-21
-9.67481e-22
-1.8137e-21
-1.64489e-21
-1.00992e-21
-3.62879e-22
5.57436e-23
2.10952e-22
1.88315e-22
9.91926e-23
2.09189e-23
-1.81642e-23
-2.40545e-23
-1.47108e-23
-4.47058e-24
1.00754e-24
2.43039e-24
2.33092e-24
2.17912e-24
2.16874e-24
-2.34467e-49
-2.61339e-48
-3.70457e-48
5.40817e-48
3.15535e-47
4.23082e-47
-5.34451e-47
-2.67496e-46
-2.92513e-46
3.03708e-46
2.38212e-45
9.56647e-45
4.86987e-45
-1.32881e-43
-3.42261e-43
1.05016e-42
4.60696e-42
-9.0572e-42
-5.19304e-41
1.11893e-40
7.1163e-40
-1.04782e-39
-9.40112e-39
5.42439e-39
1.09627e-37
2.57916e-38
-1.13297e-36
-1.20196e-36
1.02022e-35
2.08038e-35
-7.56017e-35
-2.6288e-34
3.93515e-34
2.65923e-33
-2.77605e-34
-2.15806e-32
-2.39009e-32
1.32049e-31
3.45526e-31
-4.66117e-31
-3.01439e-30
-1.26279e-30
1.75105e-29
3.49302e-29
-5.02977e-29
-2.87802e-28
-2.00875e-28
1.24092e-27
3.30161e-27
-3.83461e-28
-1.74111e-26
-3.18473e-26
1.9706e-26
1.87206e-25
3.00415e-25
-1.77256e-25
-1.65202e-24
-2.92303e-24
-2.28202e-26
1.11829e-23
2.61344e-23
2.16017e-23
-3.89874e-23
-1.67367e-22
-2.86474e-22
-1.93892e-22
3.65254e-22
1.47579e-21
2.76537e-21
3.27213e-21
1.69636e-21
-2.9323e-21
-1.04665e-20
-1.92456e-20
-2.64951e-20
-2.94743e-20
-2.68102e-20
-1.92501e-20
-9.36286e-21
-3.41963e-22
5.40985e-21
7.15527e-21
5.78003e-21
3.01623e-21
4.78421e-22
-9.62336e-22
-1.25914e-21
-8.659e-22
-3.14119e-22
6.41325e-23
1.91877e-22
1.52597e-22
6.3601e-23
-2.02201e-24
-2.83798e-23
-3.11178e-23
-2.81362e-23
-2.67918e-23
-2.68146e-23
-2.6904e-23
1.60861e-48
-1.59464e-49
-1.27971e-47
-3.52074e-47
-1.93954e-47
1.55773e-46
5.23742e-46
4.92683e-46
-1.39603e-45
-5.03523e-45
-4.50386e-45
5.58013e-45
2.67177e-44
1.32093e-43
2.42375e-43
-1.41136e-42
-5.11115e-42
1.56392e-41
8.98101e-41
-8.85341e-41
-1.1141e-39
-2.44878e-41
1.15929e-38
7.51669e-39
-1.18766e-37
-1.73442e-37
1.07823e-36
2.80578e-36
-7.52231e-36
-3.45653e-35
2.88474e-35
3.39497e-34
1.73831e-34
-2.61502e-33
-4.95482e-33
1.37934e-32
5.85957e-32
-1.52023e-32
-4.56325e-31
-6.32741e-31
2.15029e-30
8.0655e-30
-1.19072e-31
-5.31202e-29
-9.8465e-29
1.4376e-28
8.81872e-28
9.08212e-28
-3.26015e-27
-1.1933e-26
-7.43829e-27
4.78635e-26
1.44771e-25
8.31957e-26
-5.25112e-25
-1.62947e-24
-1.42304e-24
3.97275e-24
1.61054e-23
2.32916e-23
-8.03618e-24
-1.15596e-22
-2.72496e-22
-2.8453e-22
2.43384e-22
1.69743e-21
3.88178e-21
5.21526e-21
2.19709e-21
-1.01574e-20
-3.64884e-20
-7.82589e-20
-1.3125e-19
-1.8509e-19
-2.25827e-19
-2.40931e-19
-2.24545e-19
-1.80305e-19
-1.20146e-19
-5.95989e-20
-1.19274e-20
1.61232e-20
2.52655e-20
2.14727e-20
1.22961e-20
3.68448e-21
-1.47766e-21
-3.0666e-21
-2.4409e-21
-1.13747e-21
-1.24606e-22
3.1469e-22
3.27249e-22
1.73713e-22
3.48485e-23
-3.2112e-23
-4.71199e-23
-4.50673e-23
-4.32754e-23
-4.32095e-23
5.36115e-48
1.47285e-47
-1.05036e-47
-1.14403e-46
-2.09036e-46
1.60292e-46
1.4407e-45
2.13741e-45
-1.88062e-45
-9.06682e-45
-1.41879e-44
-6.79171e-44
-7.55115e-44
1.2337e-42
3.33385e-42
-1.23847e-41
-4.81268e-41
1.40771e-40
6.87916e-40
-1.45848e-39
-9.49992e-39
1.15477e-38
1.18678e-37
-5.27158e-38
-1.36085e-36
-4.51701e-37
1.39767e-35
1.63313e-35
-1.23975e-34
-2.70032e-34
8.95194e-34
3.3241e-33
-4.38269e-33
-3.29111e-32
-1.03011e-33
2.60809e-31
3.25356e-31
-1.53881e-30
-4.37514e-30
4.86425e-30
3.66483e-29
2.12781e-29
-2.02659e-28
-4.47703e-28
5.01528e-28
3.44745e-27
3.03995e-27
-1.36281e-26
-4.08408e-26
-5.14431e-27
1.95587e-25
4.06878e-25
-1.1282e-25
-2.10102e-24
-3.89379e-24
7.63462e-25
1.80008e-23
3.69641e-23
1.29216e-23
-1.11166e-22
-3.08762e-22
-3.40326e-22
2.38594e-22
1.71503e-21
3.50379e-21
3.56122e-21
-1.21481e-21
-1.30301e-20
-3.02821e-20
-4.56892e-20
-4.77881e-20
-2.6467e-20
1.98416e-20
7.99367e-20
1.32477e-19
1.55396e-19
1.37285e-19
8.39512e-20
1.59132e-20
-4.18292e-20
-7.16782e-20
-7.02949e-20
-4.73738e-20
-1.83444e-20
3.93436e-21
1.39631e-20
1.34179e-20
7.64558e-21
1.74772e-21
-1.62025e-21
-2.31541e-21
-1.52172e-21
-4.8261e-22
1.57752e-22
3.55214e-22
3.3504e-22
2.88913e-22
2.74946e-22
2.766e-22
2.77686e-22
5.23426e-48
3.33875e-47
3.03816e-47
-8.27387e-47
-2.79907e-46
-2.3956e-46
3.41742e-46
1.07923e-45
1.60991e-45
1.74254e-45
-4.06118e-45
-1.51768e-44
-3.59813e-44
-3.93165e-43
-7.87374e-43
7.66131e-42
3.28885e-41
-5.29534e-41
-5.3176e-40
-1.59516e-40
5.69791e-39
7.82343e-39
-5.28923e-38
-1.33737e-37
4.30843e-37
1.87338e-36
-2.40012e-36
-2.2244e-35
-3.74821e-36
2.1669e-34
3.31691e-34
-1.6099e-33
-5.41386e-33
6.84211e-33
5.85861e-32
2.8512e-32
-4.55172e-31
-9.44047e-31
2.18022e-30
1.09191e-29
1.3284e-30
-7.8488e-29
-1.43788e-28
2.94292e-28
1.49359e-27
8.00445e-28
-7.96695e-27
-2.00945e-26
8.30443e-27
1.32645e-25
2.23573e-25
-2.56246e-25
-1.72551e-24
-2.43478e-24
3.1881e-24
1.89846e-23
2.88709e-23
-1.85813e-23
-1.72424e-22
-3.41477e-22
-1.29515e-22
1.05675e-21
3.23043e-21
4.41771e-21
-2.22083e-22
-1.64618e-20
-4.43148e-20