/*--------------------------------*- C++ -*----------------------------------*\
  =========                 |
  \\      /  F ield         | OpenFOAM: The Open Source CFD Toolbox
   \\    /   O peration     | Website:  https://openfoam.org
    \\  /    A nd           | Version:  13
     \\/     M anipulation  |
\*---------------------------------------------------------------------------*/
FoamFile
{
    format      ascii;
    class       volScalarField;
    location    "2.1";
    object      T;
}
// * * * * * * * * * * * * * * * * * * * * * * * * * * * * * * * * * * * * * //

dimensions      [0 0 0 1 0 0 0];

internalField   nonuniform List<scalar> 
10000
(
0
0
0
0
0
0
0
0
0
0
0
0
0
0
0
0
0
0
0
0
0
0
0
0
0
0
0
0
0
0
0
0
0
0
0
0
0
0
0
0
0
0
0
0
0
0
0
0
0
0
0
0
0
0
0
0
0
0
0
0
0
0
0
0
0
0
0
0
0
0
0
0
0
0
0
0
0
0
0
0
0
0
0
0
0
0
0
0
0
0
0
0
0
0
0
0
0
0
0
0
0
0
0
0
0
0
0
0
0
0
0
0
0
0
0
0
0
0
0
0
0
0
0
0
0
0
0
0
0
0
0
0
0
0
0
0
0
0
0
0
0
0
0
0
0
0
0
0
0
0
0
0
0
0
0
0
0
0
0
0
0
0
0
0
0
0
0
0
0
0
0
0
0
0
0
0
0
0
0
0
0
0
0
0
0
0
0
0
0
0
0
0
0
0
0
0
0
0
0
0
0
0
0
0
0
0
0
0
0
0
0
0
0
0
0
0
0
0
0
0
0
0
0
0
0
0
0
0
0
0
0
0
0
0
0
0
0
0
0
0
0
0
0
0
0
0
0
0
0
0
0
0
0
0
0
0
0
0
0
0
0
0
0
0
0
0
0
0
0
0
0
0
0
0
0
0
0
0
0
0
0
0
0
0
0
0
0
0
0
0
0
0
0
0
0
0
0
0
0
0
0
0
0
0
0
0
0
0
0
0
0
0
0
0
0
0
0
0
0
0
0
0
0
0
0
0
0
0
0
0
0
0
0
0
0
0
0
0
0
0
0
0
0
0
0
0
0
0
0
0
0
0
0
0
0
0
0
0
0
0
0
0
0
0
0
0
0
0
0
0
0
0
0
0
0
0
0
0
0
0
0
0
0
0
0
0
0
0
0
0
0
0
0
0
0
0
0
0
0
0
0
0
0
0
0
0
0
0
0
0
0
0
0
0
0
0
0
0
0
0
0
0
0
0
0
0
0
0
0
0
0
0
0
0
0
0
0
0
0
0
0
0
0
0
0
0
0
0
0
0
0
0
0
0
0
0
0
0
0
0
0
0
0
0
0
0
0
0
0
0
0
0
0
0
0
0
0
0
0
0
0
0
0
0
0
0
0
0
0
0
0
0
0
0
0
0
0
0
0
0
0
0
0
0
0
0
0
0
0
0
0
0
0
0
0
0
0
0
0
0
0
0
0
0
0
0
0
0
0
0
0
0
0
0
0
0
0
0
0
0
0
0
0
0
0
0
0
0
0
0
0
0
0
0
0
0
0
0
0
0
0
0
0
0
0
0
0
0
0
0
0
0
0
0
0
0
0
0
0
0
0
0
0
0
0
0
0
0
0
0
0
0
0
0
0
0
0
0
0
0
0
0
0
0
0
0
0
0
0
0
0
0
0
0
0
0
0
0
0
0
0
0
0
0
0
0
0
0
0
0
0
0
0
0
0
0
0
0
0
0
0
0
0
0
0
0
0
0
0
0
0
0
0
0
0
0
0
0
0
0
0
0
0
0
0
0
0
0
0
0
0
0
0
0
0
0
0
0
0
0
0
0
0
0
0
0
0
0
0
0
0
0
0
0
0
0
0
0
0
0
0
0
0
0
0
0
0
0
0
0
0
0
0
0
0
0
0
0
0
0
0
0
0
0
0
0
0
0
0
0
0
0
0
0
0
0
0
0
0
0
0
0
0
0
0
0
0
0
0
0
0
0
0
0
0
0
0
0
0
0
0
0
0
0
0
0
0
0
0
0
0
0
0
0
0
0
0
0
0
0
0
0
0
0
0
0
0
0
0
0
0
0
0
0
0
0
0
0
0
0
0
0
0
0
0
0
0
0
0
0
0
0
0
0
0
0
0
0
0
0
0
0
0
0
0
0
0
0
0
0
0
0
0
0
0
0
0
0
0
0
0
0
0
0
0
0
0
0
0
0
0
0
0
0
0
0
0
0
0
0
0
0
0
0
0
0
0
0
0
0
0
0
0
0
0
0
0
0
0
0
0
0
0
0
0
0
0
0
0
0
0
0
0
0
0
0
0
0
0
0
0
0
0
0
0
0
0
0
0
0
0
0
0
0
0
0
0
0
0
0
0
0
0
0
0
0
0
0
0
0
0
0
0
0
0
0
0
0
0
0
0
0
0
0
0
0
0
0
0
0
0
0
0
0
0
0
0
0
0
0
0
0
0
0
0
0
0
0
0
0
0
0
0
0
0
0
0
0
0
0
0
0
0
0
0
0
0
0
0
0
0
0
0
0
0
0
0
0
0
0
0
0
0
0
0
0
0
0
0
0
0
0
0
0
0
0
0
0
0
0
0
0
0
0
0
0
0
0
0
0
0
0
0
0
0
0
0
0
0
0
0
0
0
0
0
0
0
0
0
0
0
0
0
0
0
0
0
0
0
0
0
0
0
0
0
0
0
0
0
0
0
0
0
0
0
0
0
0
0
0
0
0
0
0
0
0
0
0
0
0
0
0
0
0
0
0
0
0
0
0
0
0
0
0
0
0
0
0
0
0
0
0
0
0
0
0
0
0
0
0
0
0
0
0
0
0
0
0
0
0
0
0
0
0
0
0
0
0
0
0
0
0
0
0
0
0
0
0
0
0
0
0
0
0
0
0
0
0
0
0
0
0
0
0
0
0
0
0
0
0
0
0
0
0
0
0
0
0
0
0
0
0
0
0
0
0
0
0
0
0
0
0
0
0
0
0
0
0
0
0
0
0
0
0
0
0
0
0
0
0
0
0
0
0
0
0
0
0
0
0
0
0
0
0
0
0
0
0
0
0
0
0
0
0
0
0
0
0
0
0
0
0
0
0
0
0
0
0
0
0
0
0
0
0
0
0
0
0
0
0
0
0
0
0
0
0
0
0
0
0
0
0
0
0
0
0
0
0
0
0
0
0
0
0
0
0
0
0
0
0
0
0
0
0
0
0
0
0
0
0
0
0
0
0
0
0
0
0
0
0
0
0
0
0
0
0
0
0
0
0
0
0
0
0
0
0
0
0
0
0
0
0
0
0
0
0
0
0
0
0
0
0
0
0
0
0
0
0
0
0
0
0
0
0
0
0
0
0
0
0
0
0
0
0
0
0
0
0
0
0
0
0
0
0
0
0
0
0
0
0
0
0
0
0
0
0
0
0
0
0
0
0
0
0
0
0
0
0
0
0
0
0
0
0
0
0
0
0
0
0
0
0
0
0
0
0
0
0
0
0
0
0
0
0
0
0
0
0
0
0
0
0
0
0
0
0
0
0
0
0
0
0
0
0
0
0
0
0
0
0
0
0
0
0
0
0
0
0
0
0
0
0
0
0
0
0
0
0
0
0
0
0
0
0
0
0
0
0
0
0
0
0
0
0
0
0
0
0
0
0
0
0
0
0
0
0
0
0
0
0
0
0
0
0
0
0
0
0
0
0
0
0
0
0
0
0
0
0
0
0
0
0
0
0
0
0
0
0
0
0
0
0
0
0
0
0
0
0
0
0
0
0
0
0
0
0
0
0
0
0
0
0
0
0
0
0
0
0
0
0
0
0
0
0
0
0
0
0
0
0
0
0
0
0
0
0
0
0
0
0
0
0
0
0
0
0
0
0
0
0
0
0
0
0
0
0
0
0
0
0
0
0
0
0
0
0
0
0
0
0
0
0
0
0
0
0
0
0
0
0
0
0
0
0
0
0
0
0
0
0
0
0
0
0
0
0
0
0
0
0
0
0
0
0
0
0
0
0
0
0
0
0
0
0
0
0
0
0
0
0
0
0
0
0
0
0
0
0
0
0
0
0
0
0
0
0
0
0
0
0
0
0
0
0
0
0
0
0
0
0
0
0
0
0
0
0
0
0
0
0
0
0
0
0
0
0
0
0
0
0
0
0
0
0
0
0
0
0
0
0
0
0
0
0
0
0
0
0
0
0
0
0
0
0
0
0
0
0
0
0
0
0
0
0
0
0
0
0
0
0
0
0
0
0
0
0
0
0
0
0
0
0
0
0
0
0
0
0
0
0
0
0
0
0
0
0
0
0
0
0
0
0
0
0
0
0
0
0
0
0
0
0
0
0
0
0
0
0
0
0
0
0
0
0
0
0
0
0
0
0
0
0
0
0
0
0
0
0
0
0
0
0
0
0
0
0
0
0
0
0
0
0
0
0
0
0
0
0
0
0
0
0
0
0
0
0
0
0
0
0
0
0
0
0
0
0
0
0
0
0
0
0
0
0
0
0
0
0
0
0
0
0
0
0
0
0
0
0
0
0
0
0
0
0
0
0
0
0
0
0
0
0
0
0
0
0
0
0
0
0
0
0
0
0
0
0
0
0
0
0
0
0
0
0
0
0
0
0
0
0
0
0
0
0
0
0
0
0
0
0
0
0
0
0
0
0
0
0
0
0
0
0
0
0
0
0
0
0
0
0
0
0
0
0
0
0
0
0
0
0
0
0
0
0
0
0
0
0
0
0
0
0
0
0
0
0
0
0
0
0
0
0
0
0
0
0
0
0
0
0
0
0
0
0
0
0
0
0
0
0
0
0
0
0
0
0
0
0
0
0
0
0
0
0
0
0
0
0
0
0
0
0
0
0
0
0
0
0
0
0
0
0
0
0
0
0
0
0
0
0
0
0
0
0
0
0
0
0
0
0
0
0
0
0
0
0
0
0
0
0
0
0
0
0
0
0
0
0
0
0
0
0
0
0
0
0
0
0
0
0
0
0
0
0
0
0
0
0
0
0
0
0
0
0
0
0
0
0
0
0
0
0
0
0
0
0
0
0
0
0
0
0
0
0
0
0
0
0
0
0
0
0
0
0
0
0
0
0
0
0
0
0
0
0
0
0
0
0
0
0
0
0
0
0
0
0
0
0
0
0
0
0
0
0
0
0
0
0
0
0
0
0
0
0
0
0
0
0
0
0
0
0
0
0
0
0
0
0
0
0
0
0
0
0
0
0
0
0
0
0
0
0
0
0
0
0
0
0
0
0
0
0
0
0
0
0
0
0
0
0
0
0
0
0
0
0
0
0
0
0
0
0
0
0
0
0
0
0
0
0
0
0
0
0
0
0
0
0
0
0
0
0
0
0
0
0
0
0
0
0
0
0
0
0
0
0
0
0
0
0
0
0
0
0
0
0
0
0
0
0
0
0
0
0
0
0
0
0
0
0
0
0
0
0
0
0
0
0
0
0
0
0
0
0
0
0
0
0
0
0
0
0
0
0
0
0
0
0
0
0
0
0
0
0
0
0
0
0
0
0
0
0
0
0
0
0
0
0
0
0
0
0
0
0
0
0
0
0
0
0
0
0
0
0
0
0
0
0
0
0
0
0
0
0
0
0
0
0
0
0
0
0
0
0
0
0
0
0
0
0
0
0
0
0
0
0
0
0
0
0
0
0
0
0
0
0
0
0
0
0
0
0
0
0
0
0
0
0
0
0
0
0
0
0
0
0
0
0
0
0
0
0
0
0
0
0
0
0
0
0
0
0
0
0
0
0
0
0
0
0
0
0
0
0
0
-1.23516e-321
1.7564e-320
-7.12937e-320
1.48042e-319
1.08143e-318
-2.02884e-318
1.90008e-318
-1.08888e-317
5.61553e-317
-1.26541e-316
-7.69223e-317
1.57115e-315
-1.3273e-314
5.27451e-315
9.60664e-315
-1.11022e-314
5.66115e-314
-3.65706e-314
-2.23049e-313
-3.56438e-313
-1.052e-314
4.21948e-313
4.55029e-313
1.88698e-313
-6.04248e-313
-5.00929e-313
6.01556e-313
3.33235e-313
-5.18185e-314
-2.18094e-313
1.62992e-313
-1.14595e-312
-3.44428e-313
5.70401e-313
4.93728e-313
8.05222e-313
1.84407e-313
-3.08525e-313
-3.94808e-313
2.91458e-313
-2.00219e-313
-2.50739e-313
8.17485e-314
-1.13406e-313
8.02432e-314
-1.21324e-314
1.04798e-313
-3.52225e-314
-2.50626e-314
-3.28806e-315
4.12245e-315
1.00666e-314
-3.84049e-315
5.37787e-315
-2.69227e-315
-1.75779e-315
-1.70371e-316
-3.82075e-316
3.64021e-316
2.898e-316
9.7625e-317
4.83062e-318
-4.61006e-317
1.17632e-318
1.05522e-317
0
0
0
0
0
0
0
0
0
0
0
0
-2.26776e-321
2.70946e-320
-1.18576e-322
-1.8111e-319
2.70452e-319
-1.10904e-318
5.80552e-318
-5.53853e-317
2.98491e-316
-7.05821e-316
-2.2864e-315
2.38774e-314
-4.42988e-313
4.41768e-312
-2.57393e-311
1.46024e-310
-1.1104e-309
6.33111e-309
-2.87348e-308
6.50979e-308
-3.60364e-307
2.55219e-307
6.92302e-306
-5.41257e-305
1.44948e-304
-7.52519e-304
-9.9666e-306
8.40074e-304
-6.17796e-304
1.02246e-304
-1.73556e-303
6.30837e-303
2.61363e-303
-1.88574e-301
1.42472e-300
-9.45938e-300
4.68805e-299
-1.3699e-298
-2.01368e-298
5.18381e-298
1.73488e-298
-1.1999e-298
-1.98123e-298
-2.08441e-298
-1.30522e-298
1.41907e-298
2.24968e-298
-5.73124e-299
-5.55538e-298
6.3536e-298
-1.31257e-297
-3.77237e-298
9.54375e-298
2.13377e-297
4.80576e-299
-6.09154e-298
-9.79247e-298
-6.5521e-298
-2.28707e-299
5.25327e-298
6.6303e-298
-1.54551e-298
-3.6482e-298
-1.33483e-298
3.13151e-299
6.90898e-299
1.24578e-298
6.95062e-299
-3.04988e-299
-9.77533e-299
-3.65214e-299
3.33616e-300
1.57177e-299
1.77718e-299
3.48717e-300
-5.87105e-300
-5.37736e-300
-4.98892e-301
1.83636e-300
8.12123e-301
-3.87836e-301
-3.67008e-301
-1.20273e-301
-4.74944e-303
4.16019e-302
-1.6878e-302
-4.8191e-303
2.19578e-302
8.64718e-317
-7.06194e-316
4.73552e-315
-2.52976e-314
2.84446e-313
-1.31406e-312
1.39273e-311
-1.57427e-310
4.60582e-310
-1.73901e-308
1.21e-307
-1.22012e-306
6.28758e-306
-3.08437e-305
4.90756e-306
8.03683e-305
-5.34793e-305
6.09591e-304
-4.35289e-303
2.56421e-302
-1.07971e-301
8.68251e-301
-4.89273e-300
2.16151e-299
-3.27118e-299
-7.07587e-298
6.86018e-297
-4.23167e-296
2.43431e-295
-1.9016e-294
7.07827e-294
-4.61463e-293
2.07179e-292
-7.14184e-292
4.32964e-292
2.09941e-290
-1.21888e-289
4.12664e-289
-8.03746e-289
-2.7873e-289
1.36038e-289
-5.02952e-289
5.19219e-288
-8.85317e-289
-7.24217e-288
5.53994e-287
-3.98585e-286
3.58116e-285
-1.23063e-284
-2.80936e-285
1.89759e-283
-1.10149e-283
-1.34979e-283
-4.80847e-284
3.59826e-284
5.17266e-284
8.67794e-284
-1.16164e-283
-1.32915e-283
1.0194e-284
2.01108e-283
-9.01413e-283
2.62561e-283
1.1494e-282
3.25862e-283
-3.62716e-283
-4.25222e-283
-3.4867e-283
3.99074e-284
1.65439e-283
1.15038e-283
4.76511e-284
-2.18806e-283
2.51828e-284
7.43438e-284
3.89879e-284
4.45053e-284
4.55933e-284
-1.94651e-284
-5.46152e-284
-3.20264e-284
-9.00468e-285
8.57844e-285
6.36975e-285
3.10287e-285
-4.7232e-286
-2.78757e-285
2.70804e-286
1.19659e-285
5.88396e-286
-3.25459e-286
-3.33188e-286
-1.29833e-286
-5.71437e-288
2.26396e-287
1.36155e-287
-1.09381e-288
1.94457e-287
2.53617e-287
-2.54027e-287
-2.28221e-302
4.48181e-301
-3.32661e-300
3.80869e-299
-2.26645e-298
2.47404e-297
-2.79125e-296
1.44005e-295
-1.47298e-294
8.02936e-294
-7.97154e-293
3.49307e-292
-3.26073e-291
3.21076e-290
-2.16176e-290
6.73398e-290
-1.77281e-290
-1.88979e-289
1.43748e-288
-1.26044e-287
1.06205e-286
-2.34467e-286
1.56543e-285
-1.15572e-284
7.78927e-284
-4.7656e-283
-1.14943e-282
1.18561e-281
-1.02843e-280
8.62901e-280
-6.84856e-279
1.16515e-278
-6.38373e-278
4.14239e-277
-2.44733e-276
1.34609e-275
2.21965e-275
-1.01018e-274
2.98598e-274
5.09743e-274
-1.25213e-274
2.30522e-274
-2.91591e-273
1.16987e-272
6.32475e-273
-3.62116e-272
1.75714e-271
-5.57431e-271
2.89089e-271
1.18863e-269
-6.43193e-269
7.05301e-269
2.60435e-268
1.39011e-268
-1.31859e-268
-2.57375e-268
-1.84552e-268
-3.39145e-269
2.34683e-268
-1.01185e-267
2.91575e-268
6.14073e-268
5.90596e-268
-2.49521e-267
1.26223e-267
-1.68292e-267
2.26617e-267
7.3214e-269
-1.05163e-269
-1.32221e-267
9.13507e-268
2.72504e-268
1.24589e-268
6.37914e-269
6.1101e-270
7.68712e-269
-9.70096e-270
-3.73382e-269
-2.62128e-269
-7.94382e-270
-3.59873e-270
4.68116e-270
2.99386e-270
7.01727e-271
-2.45295e-271
-1.31982e-270
1.134e-270
4.4035e-271
-1.68201e-271
-2.47854e-271
-1.44018e-271
3.17155e-271
-1.60679e-271
-1.1117e-271
-2.03648e-272
3.68339e-273
5.53515e-272
-3.97145e-273
-2.12936e-272
-9.83668e-273
3.01364e-287
-2.53285e-286
2.46637e-285
-2.45694e-284
2.37324e-283
-2.17289e-282
1.85077e-281
-1.41052e-280
8.66038e-280
-8.73568e-279
5.26894e-278
-5.09037e-277
5.00232e-276
-3.22123e-275
1.55132e-274
-7.74536e-275
1.6255e-274
-1.81599e-273
1.3243e-273
9.62409e-273
-7.1001e-272
5.55504e-271
-4.24416e-270
2.42287e-269
-1.17312e-268
4.10069e-268
-2.22979e-267
-3.36682e-267
5.08592e-266
-5.04968e-265
4.47349e-264
-3.19057e-263
1.88198e-262
-9.05957e-262
2.99978e-261
-1.00735e-260
4.53275e-260
-8.53081e-260
8.49872e-260
2.01441e-259
-2.78936e-259
6.12423e-259
1.2168e-257
-4.44899e-258
-8.98508e-258
-3.24368e-258
-1.34657e-257
1.25869e-257
2.48098e-256
-2.48984e-255
1.42758e-254
-4.87623e-254
-1.84202e-254
3.14975e-253
-2.60464e-254
-1.98923e-253
-1.25569e-253
-2.00852e-253
-6.97177e-253
5.31055e-253
6.10829e-253
3.53506e-253
-2.26438e-253
-1.6363e-252
-8.88479e-253
1.17919e-252
1.44652e-252
8.38975e-253
-1.34147e-253
-9.12464e-253
-5.41843e-253
-1.10165e-253
2.4168e-253
2.34753e-253
9.6423e-254
-2.52536e-254
-4.32166e-254
-2.82336e-254
-6.32525e-255
3.00329e-255
4.15575e-255
1.77307e-255
-7.04871e-255
1.87705e-255
3.42802e-255
1.80542e-255
-1.63357e-255
2.10017e-255
-7.65027e-256
-3.92842e-256
2.70526e-256
-3.26391e-256
9.14626e-257
1.64819e-256
1.83222e-256
6.88318e-257
-1.30865e-257
-4.50199e-257
-2.34922e-257
3.64717e-258
2.51137e-273
6.42604e-272
-4.34481e-271
4.74703e-270
-5.35361e-269
5.91423e-268
-6.41283e-267
6.82167e-266
-7.11577e-265
4.14382e-264
-3.99291e-263
3.92585e-262
-1.77446e-261
1.5712e-260
-1.44739e-259
1.29557e-258
-5.29182e-258
1.53824e-258
1.77597e-258
-9.62149e-259
1.37559e-257
-1.04291e-256
7.77573e-256
-5.58061e-255
3.84273e-254
-2.5265e-253
1.57561e-252
-9.2309e-252
9.87303e-252
-9.36988e-252
-2.15624e-250
2.97911e-249
-2.14161e-248
1.10042e-247
-5.55068e-247
2.46749e-246
-8.96892e-246
1.37451e-245
-3.07181e-246
-1.22312e-244
7.82877e-244
-9.35491e-244
-7.33873e-243
2.77605e-242
-1.54091e-242
-1.56911e-242
3.2963e-241
-1.42275e-240
4.96329e-241
1.70936e-240
-2.16791e-240
2.40173e-240
4.94954e-239
-1.05144e-238
-2.37631e-239
-5.86605e-239
-1.20844e-238
1.17902e-238
4.62678e-238
6.72322e-238
-5.50835e-238
-9.8313e-238
-2.28008e-238
3.00465e-238
5.51551e-238
2.46503e-238
3.09069e-239
-2.43464e-238
-2.55433e-238
-3.93293e-239
7.84353e-239
8.19624e-239
3.10584e-239
5.8553e-240
-8.82752e-240
-9.17696e-240
-4.40944e-240
-7.6512e-241
5.44577e-241
5.52657e-241
1.27064e-241
8.56521e-241
-3.84561e-240
-4.43066e-241
-9.06962e-241
1.8355e-240
2.98642e-240
1.89188e-240
-1.10228e-240
-1.02558e-240
-3.35672e-241
4.05208e-242
9.66392e-242
7.14941e-242
4.3867e-243
-1.64745e-242
-1.06358e-242
-2.60707e-243
6.09017e-243
-3.67264e-243
9.61906e-258
-4.0686e-257
3.41343e-256
-1.28898e-255
-1.47544e-254
4.00442e-253
-4.39525e-252
4.21667e-251
-3.52541e-250
3.49409e-249
-2.63931e-248
2.24271e-247
-1.86512e-246
1.2768e-245
-9.35495e-245
6.78354e-244
-4.615e-243
2.38582e-242
-7.58664e-242
3.428e-241
-1.97942e-240
1.03466e-239
-4.28379e-239
-1.2678e-238
5.90034e-239
2.13489e-238
6.65293e-238
-4.52196e-237
2.20532e-236
-7.06747e-236
1.26196e-235
5.30027e-235
-7.57209e-234
7.10141e-233
-3.76498e-232
7.74314e-232
-7.02503e-232
-3.49333e-231
2.79744e-230
-1.35197e-229
4.65401e-229
-8.88304e-229
-3.63044e-229
2.45004e-228
7.56687e-228
-2.32276e-227
1.80028e-226
-8.70457e-226
6.87175e-225
-9.93643e-225
-3.55951e-224
3.46139e-224
3.88154e-224
-1.21495e-224
1.06769e-224
-1.88572e-224
-1.11236e-223
-6.87479e-224
9.94962e-224
2.22042e-223
1.22924e-223
-1.15164e-223
-1.96056e-223
-1.06855e-223
-2.17483e-224
9.20498e-224
9.58408e-224
5.65629e-224
-2.17682e-224
-4.02039e-224
-2.28781e-224
-9.95356e-225
-7.61191e-225
3.91594e-225
8.45219e-225
1.17644e-224
6.43158e-225
-1.19587e-224
-9.16277e-225
2.89298e-225
4.37618e-225
7.08398e-225
-1.03212e-226
-1.86202e-225
-2.40393e-225
-1.98941e-225
7.60796e-226
1.024e-225
4.88918e-226
7.733e-227
-8.6959e-227
-1.25788e-226
-3.71284e-227
1.28498e-228
2.2983e-227
2.14067e-227
2.02754e-228
-9.18404e-228
-8.00383e-228
2.77669e-229
-6.91224e-243
2.57213e-242
-2.8122e-241
3.1144e-240
-2.54866e-239
5.43024e-240
8.16763e-238
-8.64529e-237
8.64022e-236
-8.89788e-235
5.67887e-234
-5.19429e-233
4.776e-232
-4.27955e-231
2.98471e-230
-2.51348e-229
1.58055e-228
-1.25771e-227
4.85391e-227
-1.33253e-226
9.30015e-226
-6.73491e-225
4.66072e-224
2.02507e-223
-5.74973e-224
-1.07039e-223
-3.14434e-224
6.39138e-223
-4.26765e-222
1.3028e-221
-3.34219e-221
-4.64082e-221
-2.03465e-219
-1.80192e-218
7.57313e-218
-3.41763e-217
-7.69795e-217
5.07194e-216
-1.2592e-215
7.72935e-215
-3.10519e-214
6.84831e-214
-2.60375e-214
8.89454e-214
-7.26124e-213
4.04531e-213
2.78664e-213
6.42693e-211
-4.43193e-210
-9.01409e-212
8.30341e-210
-1.81219e-209
9.87147e-210
7.00228e-210
-2.8791e-209
-2.63123e-209
4.11152e-209
7.30859e-209
4.39373e-209
-4.10634e-209
-8.13662e-209
-5.20606e-209
-9.81072e-210
4.05397e-209
4.85708e-209
2.19946e-209
7.53013e-210
-2.30003e-209
-1.3902e-209
-6.73093e-210
-3.16485e-210
-1.61065e-211
3.32577e-210
3.7776e-210
2.10618e-210
-4.4015e-210
-4.30642e-210
-1.17166e-211
5.05153e-210
2.25744e-210
2.77964e-210
-1.65966e-210
-1.91504e-210
-1.38285e-210
1.67376e-212
5.4322e-211
1.87245e-212
3.75209e-211
2.05645e-212
-5.13483e-212
-4.26377e-212
2.52816e-213
5.8373e-213
1.10269e-212
1.07788e-212
-7.08581e-213
-6.06395e-213
-2.84297e-213
1.35689e-213
1.1441e-213
-5.42215e-228
2.9697e-227
-2.20708e-226
1.86413e-225
-1.96141e-224
1.66643e-223
-1.30177e-222
5.17923e-222
-9.44963e-222
-6.49571e-220
9.83722e-219
-6.03778e-218
2.45808e-217
-1.7064e-216
1.8556e-215
-1.14863e-214
5.49209e-214
-3.78814e-213
4.93798e-212
-2.13618e-211
1.24233e-210
-7.27908e-210
5.78264e-209
-3.08782e-208
1.89715e-207
-7.10414e-207
1.5408e-206
1.06581e-207
3.83005e-205
8.61585e-206
-5.36803e-205
7.7451e-205
-3.3074e-204
5.58483e-204
-9.26759e-203
4.69696e-202
-7.22696e-202
2.70086e-201
-7.22081e-201
6.91414e-201
-4.19136e-200
1.37038e-199
1.24653e-199
-7.82285e-199
-3.03357e-198
3.57556e-198
5.98737e-197
-4.22807e-196
1.55607e-195
2.58674e-196
-7.77258e-195
3.81643e-195
9.31023e-195
9.05164e-195
-1.01705e-194
-1.60996e-194
-7.67014e-195
6.00209e-195
1.30501e-194
9.62675e-195
6.49399e-195
5.46116e-195
-1.45797e-194
-1.53111e-194
-3.87603e-195
6.33988e-195
4.84465e-195
-8.65831e-195
2.34412e-195
5.56286e-195
1.01573e-195
-5.62176e-195
-1.88965e-195
3.49413e-195
6.76751e-195
-3.93284e-196
-2.59897e-195
-2.33635e-195
1.19829e-195
-2.02444e-195
4.43553e-195
-2.75791e-196
-1.15009e-195
-2.41047e-196
-5.16981e-196
-1.09584e-198
5.61818e-196
2.86818e-196
2.34999e-196
-1.20575e-196
-1.40559e-197
-3.06987e-197
-2.17045e-197
-3.41375e-198
1.77127e-197
1.11719e-197
1.33987e-198
-1.65072e-198
-1.22303e-198
-1.37902e-199
-1.79624e-213
1.20566e-212
-1.06726e-211
1.12201e-210
-8.58909e-210
8.62482e-209
-8.65433e-208
8.49384e-207
-8.15986e-206
7.6682e-205
-7.04464e-204
6.32237e-203
7.5527e-203
-9.11414e-202
-9.27857e-201
8.1631e-200
-9.14509e-200
4.61502e-198
-3.58732e-197
5.16608e-197
-2.97093e-196
-2.13545e-195
1.48788e-194
-2.69373e-195
-9.18809e-193
5.27758e-192
-1.79361e-191
8.84246e-191
-4.05471e-190
-9.14044e-192
-1.59296e-190
6.82931e-190
-5.42792e-190
1.06223e-188
-6.86911e-188
2.65967e-187
-8.40729e-187
9.4823e-187
8.27313e-187
-1.19025e-185
-8.42434e-186
-2.12395e-185
4.48271e-184
-1.95478e-183
6.20649e-183
4.96095e-183
-4.32313e-182
2.89512e-181
-4.1013e-181
-9.85277e-181
3.85499e-180
1.63128e-181
-2.25689e-180
-3.4335e-180
-3.14111e-180
9.36303e-180
5.81733e-180
1.34867e-180
-1.85601e-179
-7.64028e-180
1.09338e-179
-1.38695e-179
-1.20402e-179
7.73912e-180
2.60664e-179
1.75865e-179
3.88025e-180
-1.15989e-179
-1.45414e-179
-8.39453e-180
-1.92722e-181
5.24656e-180
4.685e-180
2.04209e-180
-6.74537e-181
-4.89917e-180
6.47901e-180
-1.01693e-179
1.80473e-180
4.64678e-180
-6.12303e-181
3.27896e-180
-8.99578e-181
-1.1089e-180
-6.35191e-182
5.14799e-181
-5.0269e-182
-2.52237e-182
-2.78286e-181
6.0882e-182
9.34332e-182
3.14444e-182
-2.75751e-182
-1.56386e-182
-5.14802e-183
-1.04232e-184
8.66843e-184
2.33195e-184
2.39071e-184
-4.29262e-185
8.81875e-199
-5.71837e-198
6.14389e-197
-7.04077e-196
6.01907e-195
-7.98623e-194
7.94065e-193
-7.61996e-192
9.60436e-191
-6.57454e-190
7.96675e-189
-7.08674e-188
3.35496e-187
-3.7507e-186
2.32149e-185
-1.22953e-184
9.252e-184
-4.28748e-183
4.61356e-182
-2.32353e-181
9.43348e-181
-5.98998e-180
1.98083e-179
-2.07389e-178
7.83454e-178
-2.18849e-177
1.0883e-176
-1.88432e-176
1.86362e-175
-3.3239e-175
1.92379e-175
2.3796e-175
3.90974e-174
-2.58701e-173
-1.60561e-173
8.34431e-173
-1.08627e-172
-2.44896e-172
3.87853e-171
-2.15245e-170
3.30322e-170
3.98265e-170
-1.49622e-169
7.03988e-169
-1.79809e-168
-3.87978e-168
1.51604e-167
-4.07322e-167
-4.63319e-169
7.45881e-166
-1.65664e-165
-1.20957e-165
6.59756e-166
2.55932e-165
3.55985e-165
-3.40211e-165
-9.53021e-165
-2.57655e-165
6.99233e-165
1.03607e-164
9.47913e-165
-4.04381e-165
-1.06055e-164
-8.51082e-165
-1.80433e-165
3.69502e-165
4.994e-165
2.94579e-165
2.71474e-166
-1.88101e-165
1.20535e-165
-5.37384e-165
1.04451e-164
-1.84682e-164
3.08481e-165
1.29227e-164
1.12528e-164
-1.04777e-164
-6.52306e-165
-4.9989e-165
2.04556e-165
3.7126e-165
9.88691e-166
3.58375e-166
-7.04267e-166
-7.70764e-166
-1.951e-166
2.78035e-166
1.95778e-166
7.23761e-167
-2.17637e-167
-3.15752e-167
-7.55305e-168
-5.03596e-168
2.38452e-168
1.65945e-168
2.03621e-169
-2.27336e-169
-9.04975e-170
-4.77209e-170
7.43088e-187
8.65719e-185
-1.45822e-182
2.74516e-181
-4.57254e-180
5.71764e-179
-5.55714e-178
5.50409e-177
-5.32629e-176
4.906e-175
-3.95063e-174
3.03664e-173
-2.39665e-172
1.742e-171
-1.28278e-170
9.15757e-170
-5.88771e-169
3.62346e-168
-2.13887e-167
1.32129e-166
-7.83588e-166
3.95578e-165
-2.10542e-164
9.21494e-164
-4.29506e-163
1.8481e-162
-7.0932e-162
2.45641e-161
-6.89763e-161
1.41642e-160
-4.49628e-161
-1.63787e-159
1.0915e-158
-3.45537e-158
1.0413e-157
-2.28003e-157
3.85497e-157
1.36305e-157
-3.50688e-156
9.56045e-156
-1.46188e-155
-1.3403e-155
1.69333e-154
-5.78068e-154
4.85444e-154
3.09481e-153
-1.99996e-152
4.90475e-152
5.3949e-152
-5.03469e-151
3.83061e-151
1.24623e-150
-9.81486e-152
-1.61861e-150
-1.76968e-150
-9.63014e-152
2.57728e-150
3.00923e-150
1.27279e-150
-1.29919e-150
-3.86545e-150
-3.71483e-150
-2.01867e-151
-2.01613e-150
1.38476e-150
-3.59038e-151
6.36008e-150
3.08226e-149
9.41451e-150
-2.72366e-149
-3.44678e-149
-1.55843e-149
9.38256e-150
2.85941e-149
1.61891e-149
-2.2844e-150
-1.089e-149
-8.61299e-150
-1.02223e-150
3.05322e-150
2.88021e-150
6.32793e-151
-8.36948e-151
-8.10459e-151
-3.21048e-151
9.21824e-152
1.74623e-151
8.48461e-152
4.98047e-153
-1.86068e-152
-2.19828e-152
-8.38515e-153
8.17143e-153
6.49811e-153
5.8579e-154
-1.04201e-153
-1.18211e-153
-2.98511e-154
2.11497e-154
1.70987e-154
-1.31072e-168
1.47557e-168
-1.28481e-167
1.29961e-166
-1.26536e-165
3.69747e-165
-3.03094e-164
2.76664e-163
-2.43947e-162
-4.02119e-161
3.7024e-160
-2.79858e-159
2.2659e-158
-1.95525e-157
1.50958e-156
-1.03362e-155
6.77741e-155
-4.25723e-154
2.54869e-153
-1.65538e-152
1.03881e-151
-5.44287e-151
3.10545e-150
-1.43969e-149
7.34357e-149
-3.5061e-148
1.24709e-147
-4.79971e-147
1.12675e-146
-1.18839e-146
-5.43809e-146
5.22152e-145
-3.06586e-144
9.10074e-144
-3.45609e-143
3.86208e-143
-8.09295e-143
-5.89701e-143
9.96252e-142
-2.64871e-141
1.9319e-141
4.02043e-141
-3.6005e-140
8.87403e-140
1.28147e-140
-3.20623e-139
2.04242e-138
-3.3007e-138
-1.44386e-137
6.32364e-137
9.73605e-138
-2.05539e-136
-3.81018e-137
8.04308e-137
1.08875e-136
2.65605e-136
1.2487e-136
4.54994e-137
-2.47577e-136
-5.53805e-136
-4.20515e-136
1.66317e-136
-1.86055e-135
1.93143e-135
1.64351e-135
6.91095e-135
2.47013e-135
-9.60282e-135
-1.63975e-134
-1.69432e-135
6.36934e-135
1.16761e-134
8.04897e-135
-1.02904e-135
-4.05297e-135
-3.80482e-135
-1.24792e-135
4.3016e-136
8.04798e-136
3.71032e-136
-8.01408e-137
-2.16544e-136
-1.04827e-136
-2.79494e-138
3.33619e-137
2.46337e-137
5.35238e-138
-3.68901e-138
-4.095e-138
-2.51303e-138
-6.71472e-139
4.26664e-138
5.04413e-139
-1.28529e-138
-9.98367e-139
-3.10326e-139
3.84622e-140
8.57656e-140
3.79693e-140
-6.7281e-142
-7.39482e-154
4.2899e-153
1.90607e-152
-2.16849e-151
-1.8844e-150
1.94658e-149
-1.76691e-148
1.57955e-147
-1.3783e-146
-1.52597e-147
6.12167e-146
-4.5651e-145
3.63423e-144
-2.79796e-143
2.09205e-142
-1.51677e-141
1.06465e-140
-7.22185e-140
4.72418e-139
-2.9726e-138
1.79362e-137
-1.03374e-136
5.66182e-136
-2.92635e-135
1.41284e-134
-6.26911e-134
2.4828e-133
-8.22281e-133
1.82899e-132
1.50751e-132
-4.89769e-131
2.82604e-130
-1.44169e-129
6.27351e-129
-1.62877e-128
2.88925e-128
-8.14143e-129
-1.10248e-127
5.4334e-127
-1.3026e-126
-5.11927e-128
4.00606e-126
-1.88958e-125
1.52895e-125
-9.42214e-126
6.55572e-126
4.68761e-124
-9.47826e-125
6.35402e-123
-1.68396e-122
-2.05691e-122
5.2628e-122
5.50488e-122
-2.34211e-122
-1.17198e-121
-7.57458e-122
4.57249e-122
-1.41462e-122
3.92252e-121
3.638e-121
1.7571e-121
-9.80963e-121
-2.65141e-120
-2.02875e-120
1.66275e-120
5.65778e-120
6.2046e-120
1.44753e-120
-5.20888e-120
-5.75724e-120
-3.54755e-120
-4.47782e-122
1.87459e-120
1.85421e-120
9.18239e-121
1.02402e-121
-2.0814e-121
-1.59527e-121
-2.69719e-122
3.9908e-122
3.5574e-122
8.79102e-123
-7.13728e-123
-8.10827e-123
-3.17168e-123
4.70395e-124
1.29255e-123
6.86017e-124
1.35373e-124
-7.10439e-125
-5.22629e-123
6.99726e-122
-3.70424e-122
-4.20318e-122
-6.67386e-123
9.60384e-123
1.10071e-122
3.83949e-123
-1.29374e-123
-1.50672e-123
-3.19814e-138
1.40516e-137
-9.47494e-137
8.86538e-136
-7.06315e-135
5.92156e-134
-4.87426e-133
3.52984e-132
-2.67682e-131
1.96269e-130
-1.58032e-129
9.34834e-129
-4.53823e-128
3.30781e-127
-1.09143e-126
7.26279e-126
-3.15596e-125
2.02564e-124
-1.29098e-123
6.25293e-123
-2.68131e-122
9.58941e-122
-5.09488e-121
2.60109e-120
-5.50818e-120
-5.3988e-120
7.80476e-119
-1.99732e-118
1.7908e-118
2.27049e-117
-1.86408e-116
9.99573e-116
-3.77048e-115
1.23759e-114
-3.129e-114
7.0225e-114
-5.57289e-115
-6.97619e-113
2.72733e-112
-5.36756e-112
-2.08788e-112
4.82312e-111
-1.06397e-110
9.8922e-111
4.28807e-110
-2.415e-109
3.42096e-109
4.93742e-109
-2.41738e-108
1.94483e-108
8.57173e-108
-7.18925e-108
-2.71047e-107
2.04376e-108
7.63271e-107
6.58648e-107
-1.14151e-106
-2.75396e-106
-1.09838e-106
3.58141e-106
6.15074e-106
1.65453e-106
-8.30612e-106
-1.44875e-105
-1.01452e-105
9.48044e-107
1.73413e-105
1.95022e-105
6.66749e-106
9.40162e-106
9.5043e-107
-1.76091e-105
-3.29611e-105
-2.6583e-105
1.43858e-105
3.99836e-105
2.37494e-105
-3.24452e-106
-1.92227e-105
-1.86878e-105
3.72052e-106
1.88706e-105
2.84187e-106
-1.2006e-105
-1.17212e-105
-7.66962e-107
2.80881e-106
5.33031e-106
5.60159e-106
-7.31305e-107
-1.97819e-106
-1.40377e-106
-2.75495e-107
8.92307e-109
3.17629e-107
1.92963e-107
1.82567e-108
-5.7017e-108
-3.74016e-108
-2.12531e-109
9.08993e-124
-4.91862e-123
3.09012e-122
-2.8104e-121
1.09219e-120
-9.1076e-120
8.00894e-119
-6.82694e-118
5.67667e-117
-8.70393e-116
7.01537e-115
-2.83286e-114
2.02576e-113
-1.47417e-112
6.2203e-112
-4.11062e-111
9.88287e-111
-5.86855e-110
3.64949e-109
-2.1405e-108
1.2033e-107
-6.44447e-107
3.27142e-106
-1.56284e-105
6.95414e-105
-1.54091e-104
3.35322e-104
2.53658e-104
1.99673e-104
-2.62322e-103
1.76273e-102
-8.9334e-102
3.64844e-101
-1.2146e-100
-2.35471e-100
-8.7438e-100
-8.85942e-100
8.25412e-99
-2.80532e-98
4.46668e-98
1.21313e-97
-8.11354e-97
1.22943e-96
2.827e-97
-8.15313e-96
2.07572e-95
-1.52359e-95
-1.46774e-94
6.5e-94
-7.58303e-95
-3.72396e-93
1.37879e-93
9.51666e-93
3.69636e-93
-1.3353e-92
-2.20667e-92
-2.43012e-93
3.43922e-92
4.63288e-92
5.20075e-93
-5.96438e-92
-7.78992e-92
-1.89835e-93
1.25806e-91
1.73131e-91
4.89561e-91
-1.32183e-90
1.02963e-90
2.24392e-91
-6.52789e-91
-2.31471e-90
-1.11859e-90
1.56692e-90
2.0199e-90
1.1148e-90
-3.25843e-91
-5.72014e-91
-3.79938e-91
-1.46458e-91
8.35251e-91
1.98169e-92
-1.13043e-90
-5.55476e-91
1.40519e-91
2.64987e-91
5.38601e-91
4.32592e-91
-4.49276e-92
-1.82632e-91
-1.45225e-91
-4.86683e-92
1.11156e-92
2.16586e-92
1.36624e-92
1.97729e-93
-2.37843e-93
-1.99513e-93
-6.47105e-94
7.49646e-95
1.52904e-94
-7.37653e-109
3.84299e-108
-4.468e-107
3.34339e-106
-2.59668e-105
2.25485e-104
-1.39596e-103
1.13888e-102
-9.24299e-102
8.4679e-101
-5.69962e-100
3.61645e-99
-1.76857e-98
9.25606e-98
-4.41588e-97
3.88402e-96
-2.49015e-95
1.20784e-94
-3.67839e-94
2.02502e-93
-1.09504e-92
4.26523e-92
-1.56985e-91
3.43765e-91
-1.45806e-90
5.49153e-90
-1.5251e-89
2.97759e-89
1.07685e-89
-3.99216e-88
3.05508e-87
-1.48987e-86
4.50859e-86
-1.21999e-85
2.75954e-85
-1.73275e-85
-1.14964e-84
4.87388e-84
-9.41362e-84
-1.9068e-84
4.5469e-83
-2.00057e-82
3.64692e-82
5.35265e-82
-2.35186e-81
1.33744e-81
4.9473e-81
1.46902e-80
-1.00795e-79
-1.59469e-79
6.12172e-79
4.25126e-79
-1.04274e-78
1.11099e-78
-9.73402e-79
-8.27858e-78
-3.23091e-78
3.1452e-77
5.25309e-77
-1.45988e-77
-1.80541e-76
-2.45922e-76
-6.58305e-77
4.84346e-76
7.96962e-76
4.24825e-76
-6.04806e-76
-1.52934e-75
-1.20907e-75
-2.03725e-76
1.03849e-75
1.09905e-75
6.59593e-76
3.12891e-76
-1.48243e-76
2.75022e-76
-1.51164e-76
1.85395e-76
-8.18e-76
-1.05096e-75
-6.22234e-76
1.05163e-76
5.55199e-76
7.14756e-76
3.9323e-76
7.42602e-77
-1.52323e-76
-1.5745e-76
-7.48377e-77
-4.37616e-78
2.14662e-77
1.82839e-77
6.74476e-78
-9.90447e-79
-2.52938e-78
-1.37195e-78
-9.38385e-80
1.87429e-79
1.6148e-79
2.45926e-80
-3.44153e-94
1.7777e-93
-1.75494e-92
1.5989e-91
-1.46628e-90
1.1862e-89
-9.53517e-89
7.23636e-88
-5.31273e-87
3.7742e-86
-2.69825e-85
1.87289e-84
-1.3137e-83
8.17861e-83
-4.60686e-82
2.59045e-81
-1.38424e-80
7.53685e-80
-3.92034e-79
1.57493e-78
-5.88554e-78
2.1613e-77
-8.29525e-77
2.84156e-76
-2.27769e-76
9.83446e-76
-2.71594e-75
3.8488e-75
5.77681e-75
-9.41227e-74
4.90756e-73
-1.88719e-72
6.77518e-72
-1.68338e-71
2.59023e-71
1.21388e-71
-2.02023e-70
6.74716e-70
-9.87322e-70
-3.04599e-69
2.10642e-68
-5.12019e-68
1.22115e-68
2.90157e-67
-8.84695e-67
9.90213e-68
4.87103e-66
-1.03555e-65
-1.11856e-65
7.05845e-65
3.25141e-66
-2.35001e-64
-2.44109e-64
1.00994e-63
1.17233e-63
-2.65685e-63
-6.02691e-63
2.60324e-63
1.84594e-62
2.16937e-62
-1.99088e-62
-8.28866e-62
-9.65223e-62
-1.86382e-62
9.66052e-62
3.07709e-61
2.26483e-61
-2.26025e-61
-2.83013e-61
-1.55241e-61
-1.73105e-61
-3.57906e-61
-2.0489e-61
-4.19142e-61
1.95584e-62
7.90006e-61
1.15563e-60
8.97998e-61
2.21473e-61
-3.19134e-61
-6.6947e-61
-6.06886e-61
-3.1076e-61
-3.58718e-62
8.73955e-62
1.00794e-61
5.49919e-62
1.02942e-62
-1.02779e-62
-1.14109e-62
-5.28091e-63
-5.5821e-64
1.15152e-63
9.13335e-64
2.92805e-64
-5.35825e-65
-1.04834e-64
-5.09157e-65
-3.75056e-66
9.18033e-66
-2.68526e-80
1.28529e-79
-1.18175e-78
1.03205e-77
1.5042e-76
-1.34854e-75
1.08545e-74
-8.578e-74
6.59337e-73
-4.9267e-72
3.57495e-71
-2.51623e-70
1.71574e-69
-1.13178e-68
7.21127e-68
-4.43033e-67
2.61922e-66
-1.48672e-65
8.08072e-65
-3.2618e-64
1.6046e-63
-7.51613e-63
3.2999e-62
-1.35329e-61
-1.80562e-62
-6.02236e-62
1.64503e-61
-1.53689e-61
-7.94823e-61
8.00183e-60
-4.09916e-59
1.59027e-58
-4.86558e-58
1.11611e-57
-1.45204e-57
-1.63589e-57
1.50948e-56
-3.65901e-56
-1.09138e-56
4.06373e-55
-1.48889e-54
2.03704e-54
4.52067e-54
-2.64122e-53
2.77061e-53
1.58931e-52
-6.11858e-52
-1.63496e-52
3.26723e-51
-4.55219e-51
-1.45409e-50
6.08063e-51
4.66435e-50
-6.37654e-50
-2.08264e-49
4.45257e-50
7.81252e-49
3.97113e-49
-6.52662e-49
-3.43737e-48
-4.17794e-48
1.34077e-47
2.61405e-47
-1.24773e-48
-6.48512e-47
-1.03665e-46
-1.2236e-46
6.08422e-47
-1.29997e-46
-6.74684e-47
1.67426e-47
1.40872e-46
2.24695e-46
3.03424e-46
2.63576e-46
9.47133e-47
1.16703e-47
-1.95351e-46
-2.38522e-46
-1.85991e-46
-7.03746e-47
-1.1823e-47
1.4604e-47
1.7746e-47
1.07951e-47
3.30996e-48
-7.93737e-49
-1.70028e-48
-1.08653e-48
-3.16947e-49
7.57674e-50
1.69689e-49
6.81617e-50
2.34629e-51
-1.54841e-50
-1.01722e-50
-3.38642e-51
2.06134e-51