/*--------------------------------*- C++ -*----------------------------------*\
  =========                 |
  \\      /  F ield         | OpenFOAM: The Open Source CFD Toolbox
   \\    /   O peration     | Website:  https://openfoam.org
    \\  /    A nd           | Version:  13
     \\/     M anipulation  |
\*---------------------------------------------------------------------------*/
FoamFile
{
    format      ascii;
    class       volScalarField;
    location    "7.4";
    object      T;
}
// * * * * * * * * * * * * * * * * * * * * * * * * * * * * * * * * * * * * * //

dimensions      [0 0 0 1 0 0 0];

internalField   nonuniform List<scalar> 
10000
(
2.94112e-43
-8.15262e-42
-1.49799e-41
3.49921e-41
1.86728e-40
1.03635e-40
-1.20687e-39
-3.2007e-39
2.39147e-39
2.7952e-38
3.98945e-38
-1.13728e-37
-5.07249e-37
-2.76542e-37
2.79549e-36
7.60868e-36
-2.0588e-36
-5.22425e-35
-9.71354e-35
1.12327e-34
8.18077e-34
1.08551e-33
-2.38116e-33
-1.12499e-32
-1.1123e-32
3.69825e-32
1.39972e-31
1.13519e-31
-4.67337e-31
-1.60477e-30
-1.26822e-30
4.90858e-30
1.70213e-29
1.56969e-29
-4.15677e-29
-1.64455e-28
-1.96194e-28
2.47534e-28
1.38902e-27
2.22289e-27
-3.32268e-28
-9.42657e-27
-2.09785e-26
-1.47246e-26
4.10185e-26
1.50276e-25
2.19407e-25
2.30208e-26
-6.65315e-25
-1.69287e-24
-2.06023e-24
8.90047e-26
6.30475e-24
1.53064e-23
2.03088e-23
8.98999e-24
-3.08903e-23
-9.97655e-23
-1.7304e-22
-1.95667e-22
-9.37891e-23
1.94604e-22
6.80455e-22
1.29635e-21
1.90123e-21
2.32317e-21
2.42552e-21
2.16545e-21
1.61517e-21
9.33629e-22
3.02632e-22
-1.41307e-22
-3.47839e-22
-3.51978e-22
-2.39486e-22
-1.01009e-22
2.1898e-24
4.93888e-23
5.11274e-23
3.08414e-23
9.02918e-24
-4.03866e-24
-7.54916e-24
-5.44908e-24
-1.97677e-24
5.20965e-25
1.61032e-24
1.80907e-24
1.71086e-24
1.6218e-24
1.59819e-24
1.60405e-24
1.61004e-24
1.61087e-24
1.61017e-24
1.60991e-24
1.60997e-24
1.61001e-24
1.61e-24
1.61e-24
-8.15407e-42
1.35845e-41
9.51301e-41
8.3958e-41
-5.62086e-40
-1.77416e-39
5.8066e-40
1.42011e-38
2.49429e-38
-4.94791e-38
-2.76742e-37
-2.35338e-37
1.37949e-36
4.46052e-36
3.90011e-37
-2.7841e-35
-6.17697e-35
4.0611e-35
4.64244e-34
7.60764e-34
-1.07945e-33
-6.75994e-33
-8.72614e-33
1.84212e-32
8.87225e-32
9.92285e-32
-2.45184e-31
-1.06804e-30
-1.1818e-30
2.62345e-30
1.18146e-29
1.47437e-29
-2.12906e-29
-1.1789e-28
-1.81308e-28
9.34551e-29
1.01136e-27
2.02715e-27
6.66021e-28
-6.68193e-27
-1.8991e-26
-2.04119e-26
2.26193e-26
1.33169e-25
2.49722e-25
1.47577e-25
-5.08935e-25
-1.8062e-24
-2.90442e-24
-1.50725e-24
5.48518e-24
1.90447e-23
3.29373e-23
2.93228e-23
-1.92285e-23
-1.35127e-22
-3.07163e-22
-4.5663e-22
-4.17945e-22
4.26881e-23
1.15765e-21
3.04948e-21
5.62463e-21
8.52536e-21
1.11826e-20
1.29706e-20
1.34141e-20
1.2362e-20
1.0052e-20
7.03214e-21
3.97321e-21
1.45186e-21
-2.07457e-22
-9.77505e-22
-1.06245e-21
-7.69146e-22
-3.79845e-22
-7.42694e-23
8.48582e-23
1.19248e-22
8.58356e-23
3.70301e-23
2.15446e-24
-1.21787e-23
-1.22056e-23
-6.83571e-24
-1.95404e-24
5.51164e-25
1.20793e-24
1.1089e-24
9.3875e-25
8.80438e-25
8.86615e-25
8.97955e-25
9.00032e-25
8.98844e-25
8.98382e-25
8.98472e-25
8.98523e-25
8.98518e-25
-1.49826e-41
9.51184e-41
2.80569e-40
-1.93482e-40
-2.55621e-39
-3.62618e-39
1.1909e-38
5.07054e-38
1.58512e-38
-3.3011e-37
-7.8287e-37
6.82053e-37
6.71742e-36
9.27811e-36
-2.49074e-35
-1.1158e-34
-7.4891e-35
5.37758e-34
1.58962e-33
1.31702e-34
-9.09037e-33
-2.0156e-32
8.41209e-33
1.30407e-31
2.36205e-31
-1.85419e-31
-1.64654e-30
-2.65947e-30
2.44798e-30
1.85887e-29
2.95495e-29
-2.21058e-29
-1.87161e-28
-3.2267e-28
1.00503e-28
1.63642e-27
3.32835e-27
8.54299e-28
-1.15903e-26
-3.04102e-26
-2.60796e-26
5.42624e-26
2.25049e-25
3.37883e-25
1.10757e-26
-1.13676e-24
-2.77204e-24
-2.98406e-24
1.57043e-24
1.30373e-23
2.71249e-23
2.85017e-23
-6.47569e-24
-9.36696e-23
-2.13835e-22
-2.89821e-22
-1.93404e-22
2.00711e-22
9.25017e-22
1.84129e-21
2.63872e-21
2.94431e-21
2.51433e-21
1.4074e-21
2.3518e-23
-1.04482e-21
-1.29217e-21
-5.62468e-22
8.57814e-22
2.37466e-21
3.37576e-21
3.51287e-21
2.829e-21
1.68215e-21
5.33724e-22
-2.6831e-22
-6.03701e-22
-5.61172e-22
-3.32392e-22
-9.59773e-23
5.01038e-23
9.34234e-23
7.16487e-23
3.0638e-23
-8.33431e-25
-1.52034e-23
-1.75762e-23
-1.55338e-23
-1.36383e-23
-1.29843e-23
-1.30316e-23
-1.3174e-23
-1.32187e-23
-1.32089e-23
-1.31994e-23
-1.31989e-23
-1.32001e-23
-1.32003e-23
-1.32002e-23
-1.32001e-23
3.49933e-41
8.3924e-41
-1.93557e-40
-1.06322e-39
-6.73629e-40
6.84969e-39
1.93997e-38
-1.10364e-38
-1.66896e-37
-2.70493e-37
6.27867e-37
3.24293e-36
2.5286e-36
-1.68042e-35
-5.30493e-35
-2.82638e-36
3.39514e-34
7.54558e-34
-4.94588e-34
-5.75195e-33
-9.62414e-33
1.31466e-32
8.56151e-32
1.14668e-31
-2.28466e-31
-1.15009e-30
-1.34653e-30
3.10789e-30
1.41451e-29
1.63181e-29
-3.40195e-29
-1.59388e-28
-2.0426e-28
2.83316e-28
1.61691e-27
2.50855e-27
-1.31364e-27
-1.41311e-26
-2.81039e-26
-8.00717e-27
9.64075e-26
2.66012e-25
2.68217e-25
-3.68592e-25
-1.91825e-24
-3.38735e-24
-1.51542e-24
8.1261e-24
2.56056e-23
3.73598e-23
1.09622e-23
-9.12325e-23
-2.67482e-22
-4.11101e-22
-2.72468e-22
4.72873e-22
1.99012e-21
3.91825e-21
5.04471e-21
3.29713e-21
-3.72335e-21
-1.76903e-20
-3.83589e-20
-6.2858e-20
-8.60209e-20
-1.01871e-19
-1.0576e-19
-9.62224e-20
-7.5652e-20
-4.94328e-20
-2.39283e-20
-4.25832e-21
7.16545e-21
1.08366e-20
9.23213e-21
5.39671e-21
1.73908e-21
-5.31303e-22
-1.30774e-21
-1.10812e-21
-5.63435e-22
-1.01948e-22
1.24259e-22
1.5424e-22
9.25918e-23
2.28949e-23
-1.94638e-23
-3.47999e-23
-3.61497e-23
-3.41005e-23
-3.28789e-23
-3.27082e-23
-3.28437e-23
-3.29121e-23
-3.29093e-23
-3.28992e-23
-3.2898e-23
-3.28991e-23
-3.28992e-23
-3.28992e-23
1.86745e-40
-5.62102e-40
-2.55638e-39
-6.74037e-40
1.83275e-38
4.189e-38
-5.2285e-38
-4.13225e-37
-4.61825e-37
1.99359e-36
7.31094e-36
1.34158e-36
-4.66262e-35
-1.05689e-34
8.40589e-35
8.54207e-34
1.26764e-33
-2.61024e-33
-1.32572e-32
-1.2709e-32
5.04977e-32
1.82071e-31
1.09172e-31
-7.72062e-31
-2.28476e-30
-9.07658e-31
9.95489e-30
2.68108e-29
9.86314e-30
-1.10129e-28
-2.96833e-28
-1.53258e-28
1.02781e-27
3.06207e-27
2.50747e-27
-7.52087e-27
-2.83182e-26
-3.52588e-26
3.23057e-26
2.18129e-25
3.96562e-25
1.21356e-25
-1.19046e-24
-3.35147e-24
-3.97491e-24
1.89303e-24
1.82909e-23
3.94684e-23
3.97945e-23
-2.47581e-23
-1.86819e-22
-4.0449e-22
-4.91995e-22
-1.10945e-22
1.09593e-21
3.19103e-21
5.52045e-21
6.38714e-21
3.08556e-21
-7.51393e-21
-2.787e-20
-5.84917e-20
-9.70003e-20
-1.38032e-19
-1.7421e-19
-1.98011e-19
-2.0393e-19
-1.90219e-19
-1.59524e-19
-1.18166e-19
-7.43023e-20
-3.55994e-20
-7.25717e-21
8.97438e-21
1.45569e-20
1.29696e-20
8.15546e-21
3.24015e-21
-8.77106e-23
-1.50177e-21
-1.52403e-21
-9.24394e-22
-2.99782e-22
7.61556e-23
1.93555e-22
1.63185e-22
9.58144e-23
4.91102e-23
3.18059e-23
3.09195e-23
3.37525e-23
3.51931e-23
3.52629e-23
3.50493e-23
3.49812e-23
3.49979e-23
3.50097e-23
3.5009e-23
3.50078e-23
3.50078e-23
1.03668e-40
-1.77398e-39
-3.6261e-39
6.84871e-39
4.18873e-38
3.11262e-38
-2.53937e-37
-7.42325e-37
3.57898e-37
6.06706e-36
9.81539e-36
-2.21781e-35
-1.12688e-34
-8.28667e-35
5.74086e-34
1.73116e-33
-5.67901e-35
-1.09848e-32
-2.27608e-32
1.84139e-32
1.74403e-31
2.64381e-31
-4.3283e-31
-2.41762e-30
-2.83888e-30
6.91539e-30
3.01553e-29
3.01334e-29
-8.74445e-29
-3.44249e-28
-3.37309e-28
8.98613e-28
3.60467e-27
3.99853e-27
-7.18259e-27
-3.40195e-26
-4.6903e-26
3.57923e-26
2.76634e-25
4.98247e-25
7.05736e-26
-1.75796e-24
-4.40944e-24
-3.96506e-24
6.42399e-24
2.92529e-23
4.81778e-23
1.84353e-23
-1.12015e-22
-3.30096e-22
-4.5859e-22
-1.31346e-22
1.01255e-21
2.85631e-21
4.25257e-21
2.90111e-21
-3.75091e-21
-1.6427e-20
-3.1525e-20
-3.988e-20
-2.85418e-20
1.39507e-20
9.05608e-20
1.9067e-19
2.90588e-19
3.6089e-19
3.77985e-19
3.34468e-19
2.4286e-19
1.30587e-19
2.86897e-20
-4.00798e-20
-6.81986e-20
-6.28686e-20
-3.96234e-20
-1.41734e-20
3.4467e-21
1.05034e-20
9.59975e-21
5.25933e-21
1.14327e-21
-1.0992e-21
-1.53306e-21
-1.00061e-21
-3.03302e-22
1.56961e-22
3.38372e-22
3.59223e-22
3.34553e-22
3.17446e-22
3.14001e-22
3.15618e-22
3.16772e-22
3.16855e-22
3.16697e-22
3.16655e-22
3.1667e-22
3.16676e-22
3.16675e-22
3.16675e-22
-1.2069e-39
5.81273e-40
1.19104e-38
1.93997e-38
-5.22926e-38
-2.53955e-37
-1.30151e-37
1.59977e-36
4.25225e-36
-2.56361e-36
-3.51778e-35
-5.60994e-35
1.20645e-34
6.30275e-34
5.48539e-34
-2.90012e-33
-9.71926e-33
-2.87366e-33
5.34654e-32
1.34034e-31
-2.3264e-32
-8.32989e-31
-1.71339e-30
8.70729e-31
1.14265e-29
2.10138e-29
-1.33482e-29
-1.40463e-28
-2.53051e-28
1.26239e-28
1.54594e-27
2.98608e-27
-3.82101e-28
-1.48729e-26
-3.34619e-26
-1.27258e-26
1.17217e-25
3.37279e-25
3.19454e-25
-6.24e-25
-2.82821e-24
-4.47244e-24
-2.18187e-26
1.70484e-23
4.27298e-23
4.50219e-23
-3.92669e-23
-2.57531e-22
-5.23358e-22
-4.81747e-22
4.67926e-22
2.75079e-21
5.70865e-21
6.58482e-21
4.09931e-22
-1.79061e-20
-4.86271e-20
-8.05798e-20
-8.64051e-20
-2.44362e-20
1.49581e-19
4.62394e-19
9.02219e-19
1.40784e-18
1.8769e-18
2.19449e-18
2.27246e-18
2.08306e-18
1.67113e-18
1.13868e-18
6.08563e-19
1.83322e-19
-8.33822e-20
-1.93047e-19
-1.87719e-19
-1.24767e-19
-5.36085e-20
-2.92966e-21
1.99639e-20
2.17376e-20
1.36246e-20
4.65826e-21
-8.56902e-22
-2.58038e-21
-2.05015e-21
-8.97944e-22
-3.15799e-23
3.57947e-22
4.3709e-22
4.09261e-22
3.8124e-22
3.73771e-22
3.75574e-22
3.7733e-22
3.7752e-22
3.7731e-22
3.77253e-22
3.77271e-22
3.77278e-22
3.77277e-22
-3.20097e-39
1.42015e-38
5.07083e-38
-1.1031e-38
-4.13228e-37
-7.42367e-37
1.59968e-36
8.685e-36
5.98742e-36
-4.96886e-35
-1.43263e-34
4.88844e-35
1.07072e-33
1.88578e-33
-3.09439e-33
-1.85714e-32
-1.93153e-32
7.46379e-32
2.75331e-31
1.37489e-31
-1.32449e-30
-3.62959e-30
-3.15791e-31
1.94707e-29
4.40357e-29
-7.8373e-30
-2.47884e-28
-5.06655e-28
1.24233e-28
2.7762e-27
5.62012e-27
-4.83626e-28
-2.71497e-26
-5.96048e-26
-1.57775e-26
2.22842e-25
5.82516e-25
4.27467e-25
-1.37016e-24
-4.91985e-24
-6.30113e-24
3.7052e-24
3.2202e-23
6.39008e-23
4.05298e-23
-1.21701e-22
-4.32807e-22
-6.62714e-22
-2.5384e-22
1.42629e-21
4.31432e-21
6.60586e-21
4.31119e-21
-7.37586e-21
-3.02722e-20
-5.80148e-20
-7.2477e-20
-4.54004e-20
5.31155e-20
2.41716e-19
5.16685e-19
8.49187e-19
1.19328e-18
1.50068e-18
1.73413e-18
1.8725e-18
1.90717e-18
1.83536e-18
1.6579e-18
1.38415e-18
1.0397e-18
6.6889e-19
3.26845e-19
6.29449e-20
-9.57892e-20
-1.52427e-19
-1.35103e-19
-8.26918e-20
-2.91588e-20
6.15938e-21
1.9576e-20
1.75705e-20
9.43721e-21
2.01979e-21
-1.98427e-21
-2.98439e-21
-2.53471e-21
-1.88954e-21
-1.54754e-21
-1.4797e-21
-1.51192e-21
-1.53901e-21
-1.54374e-21
-1.54074e-21
-1.53921e-21
-1.53933e-21
-1.53955e-21
-1.53956e-21
-1.53954e-21
-1.53954e-21
2.39096e-39
2.49402e-38
1.58497e-38
-1.66882e-37
-4.61787e-37
3.57907e-37
4.25204e-36
5.98687e-36
-1.91812e-35
-8.29799e-35
-3.38393e-35
5.14318e-34
1.30328e-33
-7.84176e-34
-1.03707e-32
-1.66467e-32
3.19557e-32
1.73605e-31
1.69992e-31
-7.01957e-31
-2.5321e-30
-1.30651e-30
1.18845e-29
3.33165e-29
6.29489e-30
-1.69214e-28
-4.07293e-28
-8.25117e-30
2.09352e-27
4.72751e-27
1.97128e-28
-2.26508e-26
-5.23862e-26
-1.33125e-26
2.10183e-25
5.44429e-25
3.35135e-25
-1.56828e-24
-5.08511e-24
-5.48071e-24
7.59791e-24
3.97164e-23
6.54572e-23
6.99275e-24
-2.24837e-22
-5.7001e-22
-5.95729e-22
5.03099e-22
3.23593e-21
6.34226e-21
5.39906e-21
-6.2822e-21
-3.20725e-20
-6.20189e-20
-6.43483e-20
1.01037e-20
1.99892e-19
4.8261e-19
7.23999e-19
6.65326e-19
-1.5611e-20
-1.56713e-18
-3.99806e-18
-6.97057e-18
-9.83234e-18
-1.18093e-17
-1.22926e-17
-1.1091e-17
-8.52153e-18
-5.29051e-18
-2.21924e-18
5.31454e-20
1.25669e-18
1.50187e-18
1.14224e-18
5.79442e-19
1.0799e-19
-1.46697e-19
-2.01333e-19
-1.42456e-19
-5.74839e-20
2.36428e-21
2.52227e-20
2.25019e-20
1.06161e-20
3.70173e-22
-4.90428e-21
-6.38056e-21
-6.25434e-21
-5.91859e-21
-5.78367e-21
-5.78509e-21
-5.80752e-21
-5.814e-21
-5.81226e-21
-5.811e-21
-5.81105e-21
-5.8112e-21
-5.8112e-21
-5.81119e-21
2.79526e-38
-4.94891e-38
-3.30133e-37
-2.70493e-37
1.99371e-36
6.06735e-36
-2.56359e-36
-4.969e-35
-8.29832e-35
1.82461e-34
9.55271e-34
7.23903e-34
-4.9462e-33
-1.51374e-32
5.22659e-34
9.82323e-32
2.04844e-31
-1.72521e-31
-1.61629e-30
-2.44486e-30
4.2077e-30
2.32476e-29
2.69656e-29
-7.00204e-29
-3.01828e-28
-2.95309e-28
9.26859e-28
3.60464e-27
3.4536e-27
-1.004e-26
-3.97499e-26
-4.34609e-26
8.54789e-26
3.98168e-25
5.47499e-25
-4.65274e-25
-3.46588e-24
-6.29193e-24
-7.25047e-25
2.37902e-23
6.06382e-23
5.55142e-23
-9.4667e-23
-4.4126e-22
-7.5236e-22
-3.06824e-22
1.85781e-21
5.75835e-21
8.46867e-21
2.88899e-21
-1.96226e-20
-5.99572e-20
-9.66209e-20
-7.49422e-20
8.32526e-20
4.33563e-19
9.26043e-19
1.31357e-18
1.10803e-18
-3.53629e-19
-3.70506e-18
-9.24938e-18
-1.66769e-17
-2.49512e-17
-3.24704e-17
-3.74987e-17
-3.87292e-17
-3.57517e-17
-2.92234e-17
-2.06585e-17
-1.1921e-17
-4.63444e-18
2.57788e-19
2.63204e-18
3.02104e-18
2.26945e-18
1.18023e-18
2.86212e-19
-2.05788e-19
-3.35832e-19
-2.56889e-19
-1.19936e-19
-1.52976e-20
3.18094e-20
3.58759e-20
2.19641e-20
7.94798e-21
3.34031e-22
-1.83768e-21
-1.631e-21
-1.12511e-21
-9.35462e-22
-9.47874e-22
-9.82473e-22
-9.89809e-22
-9.86378e-22
-9.84861e-22
-9.85103e-22
-9.85267e-22
-9.85256e-22
3.98994e-38
-2.7675e-37
-7.8292e-37
6.27789e-37
7.31103e-36
9.81604e-36
-3.51766e-35
-1.43264e-34
-3.38472e-35
9.55254e-34
2.18292e-33
-2.14099e-33
-1.92321e-32
-2.53371e-32
7.38564e-32
3.17053e-31
1.93661e-31
-1.5687e-30
-4.48899e-30
-7.5072e-32
2.63136e-29
5.6623e-29
-2.801e-29
-3.75982e-28
-6.6109e-28
5.77721e-28
4.73955e-27
7.43557e-27
-7.53052e-27
-5.35263e-26
-8.28281e-26
6.87075e-26
5.40125e-25
9.09582e-25
-3.3895e-25
-4.74287e-24
-9.45051e-24
-2.02775e-24
3.38516e-23
8.70164e-23
7.20111e-23
-1.61507e-22
-6.49431e-22
-9.5786e-22
9.05087e-24
3.32173e-21
7.96616e-21
8.40008e-21
-4.94449e-21
-3.80005e-20
-7.80015e-20
-8.04932e-20
2.23014e-20
2.7462e-19
6.18436e-19
8.28765e-19
5.35443e-19
-6.18741e-19
-2.71736e-18
-5.3465e-18
-7.59314e-18
-8.36992e-18
-6.97393e-18
-3.59026e-18
5.95746e-19
3.83451e-18
4.62979e-18
2.50783e-18
-1.70485e-18
-6.26951e-18
-9.37708e-18
-9.97625e-18
-8.15516e-18
-4.93084e-18
-1.64001e-18
6.92988e-19
1.69645e-18
1.60658e-18
9.6637e-19
2.90479e-19
-1.33635e-19
-2.64259e-19
-2.06053e-19
-8.99244e-20
6.5556e-22
4.27809e-20
5.03257e-20
4.48259e-20
3.94755e-20
3.75815e-20
3.76923e-20
3.80931e-20
3.82225e-20
3.8196e-20
3.81688e-20
3.81672e-20
3.81707e-20
3.81712e-20
3.81709e-20
3.81709e-20
-1.13719e-37
-2.35297e-37
6.82068e-37
3.24274e-36
1.34107e-36
-2.21783e-35
-5.60969e-35
4.88908e-35
5.14319e-34
7.23868e-34
-2.14108e-33
-9.59738e-33
-5.57715e-33
5.3288e-32
1.51178e-31
-2.55672e-32
-1.03197e-30
-2.07176e-30
1.94164e-30
1.69604e-29
2.54819e-29
-4.44271e-29
-2.46738e-28
-2.94238e-28
7.29411e-28
3.25947e-27
3.39459e-27
-9.64176e-27
-3.96406e-26
-4.12502e-26
1.04294e-25
4.43786e-25
5.25481e-25
-8.76222e-25
-4.48983e-24
-6.58176e-24
4.43483e-24
3.92599e-23
7.48281e-23
1.53768e-23
-2.69363e-22
-7.14808e-22
-6.85749e-22
1.06216e-21
5.18658e-21
8.93586e-21
3.62993e-21
-2.22115e-20
-6.81641e-20
-9.78037e-20
-2.58908e-20
2.4468e-19
7.05854e-19
1.07506e-18
7.00473e-19
-1.25685e-18
-5.21336e-18
-1.02167e-17
-1.31165e-17
-8.55905e-18
9.62516e-18
4.5711e-17
9.9022e-17
1.62132e-16
2.21736e-16
2.62478e-16
2.72431e-16
2.47853e-16
1.94901e-16
1.2741e-16
6.17305e-17
1.1032e-17
-1.8461e-17
-2.79869e-17
-2.38937e-17
-1.40111e-17
-4.55299e-18
1.34245e-18
3.37908e-18
2.8809e-18
1.47569e-18
2.75892e-19
-3.17698e-19
-4.00986e-19
-2.43299e-19
-6.22116e-20
4.88363e-20
8.95319e-20
9.34058e-20
8.81218e-20
8.48962e-20
8.44218e-20
8.47713e-20
8.49532e-20
8.49476e-20
8.49209e-20
8.49176e-20
8.49203e-20
8.49208e-20
8.49207e-20
-5.07256e-37
1.37964e-36
6.71776e-36
2.5286e-36
-4.6628e-35
-1.12693e-34
1.20644e-34
1.07074e-33
1.30333e-33
-4.94619e-33
-1.92323e-32
-5.57764e-33
1.18378e-31
2.82661e-31
-1.83441e-31
-2.19712e-30
-3.46613e-30
6.27664e-30
3.44103e-29
3.59576e-29
-1.24659e-28
-4.75733e-28
-3.26386e-28
1.92722e-27
5.99511e-27
2.90784e-27
-2.49522e-26
-7.04397e-26
-3.19594e-26
2.75715e-25
7.78206e-25
4.63344e-25
-2.55389e-24
-7.98375e-24
-7.09708e-24
1.83121e-23
7.31914e-23
9.58237e-23
-7.24559e-23
-5.56394e-22
-1.05047e-21
-4.02662e-22
2.95853e-21
8.70104e-21
1.07877e-20
-3.77901e-21
-4.62975e-20
-1.0329e-19
-1.09135e-19
5.25058e-20
4.7358e-19
1.05645e-18
1.32563e-18
3.90603e-19
-2.71956e-18
-8.23734e-18
-1.45285e-17
-1.71827e-17
-9.04381e-18
1.82854e-17
7.15276e-17
1.52258e-16
2.54294e-16
3.63344e-16
4.596e-16
5.22789e-16
5.38117e-16
5.0099e-16
4.1872e-16
3.08485e-16
1.92235e-16
9.03726e-17
1.64815e-17
-2.5172e-17
-3.88317e-17
-3.39381e-17
-2.09595e-17
-8.04198e-18
5.32175e-19
4.05438e-18
3.98333e-18
2.36007e-18
7.27843e-19
-2.3001e-19
-5.1232e-19
-4.18677e-19
-2.37804e-19
-1.15732e-19
-7.15307e-20
-6.97778e-20
-7.726e-20
-8.09562e-20
-8.11002e-20
-8.05413e-20
-8.03694e-20
-8.04143e-20
-8.04445e-20
-8.04424e-20
-8.04393e-20
-8.04393e-20
-2.7662e-37
4.46066e-36
9.27888e-36
-1.68031e-35
-1.05691e-34
-8.28765e-35
6.3026e-34
1.8858e-33
-7.84062e-34
-1.51372e-32
-2.53372e-32
5.32868e-32
2.82659e-31
2.25609e-31
-1.39845e-30
-4.37472e-30
-2.29278e-31
2.69175e-29
5.81642e-29
-3.94366e-29
-4.28884e-28
-6.86773e-28
9.7685e-28
5.9576e-27
7.53165e-27
-1.57579e-26
-7.43171e-26
-8.15155e-26
1.98067e-25
8.45734e-25
9.17592e-25
-1.99192e-24
-8.78377e-24
-1.07242e-23
1.50901e-23
8.16155e-23
1.22367e-22
-6.13084e-23
-6.45627e-22
-1.25627e-21
-3.99597e-22
3.88679e-21
1.06727e-20
1.10672e-20
-1.17902e-20
-6.67646e-20
-1.20205e-19
-6.86221e-20
2.21545e-19
7.52852e-19
1.15684e-18
5.93144e-19
-1.87479e-18
-6.24804e-18
-1.02768e-17
-8.94945e-18
3.86675e-18
3.11322e-17
6.71568e-17
9.44389e-17
8.66692e-17
1.92069e-17
-1.16397e-16
-3.01396e-16
-4.90157e-16
-6.24615e-16
-6.57716e-16
-5.74583e-16
-4.00187e-16
-1.89074e-16
-2.30517e-18
1.16607e-16
1.55285e-16
1.30679e-16
7.54044e-17
2.09457e-17
-1.38915e-17
-2.55564e-17
-2.10251e-17
-1.04277e-17
-1.37379e-18
3.10566e-18
3.59762e-18
2.15056e-18
5.29874e-19
-4.62558e-19
-8.14731e-19
-8.27983e-19
-7.61616e-19
-7.23352e-19
-7.17744e-19
-7.22307e-19
-7.24896e-19
-7.24928e-19
-7.24535e-19
-7.24453e-19
-7.24494e-19
-7.24508e-19
-7.24505e-19
-7.24504e-19
2.79532e-36
3.89466e-37
-2.49075e-35
-5.30466e-35
8.4065e-35
5.74086e-34
5.4851e-34
-3.09446e-33
-1.03707e-32
5.23012e-34
7.38571e-32
1.51178e-31
-1.83445e-31
-1.39846e-30
-1.7665e-30
5.26933e-30
2.25412e-29
1.56745e-29
-1.04567e-28
-3.22498e-28
-8.5228e-29
1.69423e-27
4.23658e-27
-1.21791e-28
-2.37117e-26
-5.26232e-26
7.64026e-27
2.93047e-25
6.29856e-25
-3.33577e-26
-3.19744e-24
-7.2582e-24
-1.68686e-24
2.99971e-23
7.84996e-23
5.1236e-23
-2.24034e-22
-7.58684e-22
-8.79935e-22
1.01635e-21
6.05494e-21
1.07888e-20
2.96864e-21
-3.38259e-20
-9.53044e-20
-1.14921e-19
5.14846e-20
5.31748e-19
1.17566e-18
1.22881e-18
-6.76479e-19
-5.65302e-18
-1.25499e-17
-1.55667e-17
-3.70241e-18
3.49708e-17
1.02558e-16
1.76522e-16
1.98538e-16
7.77429e-17
-2.84053e-16
-9.48082e-16
-1.89159e-15
-2.98281e-15
-3.99852e-15
-4.68682e-15
-4.85431e-15
-4.44052e-15
-3.54481e-15
-2.39179e-15
-1.25044e-15
-3.43266e-16
2.16009e-16
4.34916e-16
4.08648e-16
2.63753e-16
1.07157e-16
-9.21675e-19
-4.71717e-17
-4.80214e-17
-2.87411e-17
-8.88095e-18
2.75161e-18
5.97048e-18
4.4358e-18
1.76205e-18
-1.47837e-19
-9.7016e-19
-1.11994e-18
-1.05177e-18
-9.91383e-19
-9.76801e-19
-9.81249e-19
-9.84956e-19
-9.85258e-19
-9.84795e-19
-9.84684e-19
-9.84726e-19
-9.84739e-19
-9.84737e-19
7.6087e-36
-2.78431e-35
-1.11584e-34
-2.82595e-36
8.5423e-34
1.73122e-33
-2.9001e-33
-1.85717e-32
-1.66473e-32
9.82321e-32
3.17055e-31
-2.5561e-32
-2.19712e-30
-4.37474e-30
5.26927e-30
3.90909e-29
4.87042e-29
-1.39714e-28
-5.9211e-28
-4.23655e-28
2.56992e-27
7.95712e-27
2.63549e-27
-3.8428e-26
-9.80723e-26
-9.65106e-27
4.92124e-25
1.13848e-24
5.65844e-26
-5.48677e-24
-1.26086e-23
-2.53137e-24
5.26938e-23
1.31898e-22
6.88943e-23
-4.14513e-22
-1.25624e-21
-1.20893e-21
2.2757e-21
1.01905e-20
1.53538e-20
-2.07943e-21
-6.20596e-20
-1.42425e-19
-1.26193e-19
1.84247e-19
8.78837e-19
1.56603e-18
1.07263e-18
-2.21716e-18
-8.84534e-18
-1.57931e-17
-1.46218e-17
6.99059e-18
5.80012e-17
1.31655e-16
1.93146e-16
1.75601e-16
-8.55647e-18
-4.40455e-16
-1.16041e-15
-2.14081e-15
-3.27906e-15
-4.41485e-15
-5.36552e-15
-5.96717e-15
-6.10998e-15
-5.76098e-15
-4.97199e-15
-3.8717e-15
-2.64116e-15
-1.4747e-15
-5.34425e-16
8.75723e-17
3.85121e-16
4.25727e-16
3.16146e-16
1.61438e-16
3.43866e-17
-3.51479e-17
-5.21399e-17
-3.86743e-17
-1.71678e-17
-1.09987e-18
6.00702e-18
6.68706e-18
4.89397e-18
3.23814e-18
2.4973e-18
2.39722e-18
2.48923e-18
2.54923e-18
2.55635e-18
2.54871e-18
2.54556e-18
2.54602e-18
2.54651e-18
2.54651e-18
2.54646e-18
2.54646e-18
-2.05774e-36
-6.17719e-35
-7.49019e-35
3.395e-34
1.26767e-33
-5.66541e-35
-9.71908e-33
-1.93155e-32
3.19541e-32
2.04842e-31
1.93663e-31
-1.03196e-30
-3.46611e-30
-2.29292e-31
2.25411e-29
4.87039e-29
-4.21772e-29
-3.96034e-28
-5.78687e-28
1.17594e-27
5.97102e-27
5.93312e-27
-2.15624e-26
-8.02523e-26
-5.52316e-26
3.15574e-25
9.88092e-25
5.30892e-25
-3.88991e-24
-1.13389e-23
-6.22525e-24
4.07402e-23
1.21562e-22
8.74297e-23
-3.51929e-22
-1.1957e-21
-1.2262e-21
2.24684e-21
1.03333e-20
1.50193e-20
-5.84037e-21
-7.22295e-20
-1.49112e-19
-8.70007e-20
3.32656e-19
1.10781e-18
1.52532e-18
-3.53682e-20
-5.09775e-18
-1.23444e-17
-1.43843e-17
2.05208e-18
4.75114e-17
1.11769e-16
1.45231e-16
5.96016e-17
-2.31284e-16
-7.28028e-16
-1.25286e-15
-1.41308e-15
-6.85253e-16
1.3674e-15
4.81879e-15
9.18921e-15
1.34801e-14
1.64766e-14
1.72127e-14
1.53837e-14
1.14959e-14
6.66917e-15
2.18798e-15
-9.78286e-16
-2.4658e-15
-2.51418e-15
-1.72545e-15
-7.41438e-16
-3.46341e-19
3.45177e-16
3.65311e-16
2.24524e-16
6.90889e-17
-2.60284e-17
-5.31758e-17
-3.94603e-17
-1.49985e-17
3.0655e-18
1.11918e-17
1.28394e-17
1.22195e-17
1.15857e-17
1.14026e-17
1.14376e-17
1.14802e-17
1.14872e-17
1.14825e-17
1.14806e-17
1.14809e-17
1.14812e-17
1.14812e-17
1.14812e-17
-5.22398e-35
4.06174e-35
5.37755e-34
7.54521e-34
-2.61031e-33
-1.09848e-32
-2.87332e-33
7.46385e-32
1.73605e-31
-1.72525e-31
-1.5687e-30
-2.07175e-30
6.27668e-30
2.69176e-29
1.56745e-29
-1.39714e-28
-3.96035e-28
2.06089e-29
2.45916e-27
5.18559e-27
-3.22109e-27
-3.7009e-26
-6.2881e-26
6.771e-26
4.94417e-25
7.38353e-25
-9.53333e-25
-5.97298e-24
-8.6987e-24
9.94646e-24
6.53674e-23
1.03071e-22
-6.84876e-23
-6.35602e-22
-1.18238e-21
2.7689e-23
5.20868e-21
1.23309e-20
7.88612e-21
-3.14028e-20
-1.08027e-19
-1.4104e-19
6.83238e-20
7.00407e-19
1.4927e-18
1.21231e-18
-2.21561e-18
-9.80139e-18
-1.74934e-17
-1.24628e-17
2.43363e-17
1.02312e-16
1.91475e-16
1.93746e-16
-5.14429e-17
-6.89156e-16
-1.68607e-15
-2.62921e-15
-2.60037e-15
-2.67281e-16
5.72522e-15
1.61279e-14
3.04601e-14
4.67151e-14
6.16528e-14
7.16941e-14
7.41216e-14
6.80911e-14
5.49948e-14
3.79954e-14
2.09249e-14
7.03077e-15
-1.91801e-15
-5.85971e-15
-6.02869e-15
-4.19826e-15
-1.95388e-15
-2.67159e-16
5.60567e-16
6.92491e-16
4.68638e-16
1.84076e-16
-6.39889e-18
-7.67607e-17
-6.894e-17
-3.48951e-17
-6.58445e-18
7.15733e-18
1.0432e-17
9.70938e-18
8.75174e-18
8.4541e-18
8.50024e-18
8.56254e-18
8.57206e-18
8.56515e-18
8.56281e-18
8.56337e-18
8.56364e-18
8.56361e-18
-9.71343e-35
4.64271e-34
1.58967e-33
-4.94603e-34
-1.32575e-32
-2.27614e-32
5.34653e-32
2.75333e-31
1.69999e-31
-1.61629e-30
-4.48901e-30
1.94158e-30
3.44102e-29
5.81644e-29
-1.04567e-28
-5.9211e-28
-5.78689e-28
2.45915e-27
8.72376e-27
3.79141e-27
-4.31943e-26
-1.14419e-25
-1.74984e-27
6.31875e-25
1.38318e-24
-3.55556e-25
-8.03032e-24
-1.58943e-23
5.18986e-24
9.00167e-23
1.76634e-22
-2.8454e-23
-8.83717e-22
-1.88251e-21
-3.79954e-22
7.31424e-21
1.85333e-20
1.26509e-20
-4.58477e-20
-1.58058e-19
-1.95187e-19
1.3657e-19
1.04967e-18
2.02472e-18
1.17781e-18
-4.11651e-18
-1.39853e-17
-2.07895e-17
-6.63072e-18
4.80329e-17
1.39367e-16
2.07324e-16
1.23708e-16
-2.60443e-16
-9.9053e-16
-1.84476e-15
-2.23037e-15
-1.25426e-15
1.9873e-15
7.9918e-15
1.6517e-14
2.6542e-14
3.65846e-14
4.52163e-14
5.14846e-14
5.50133e-14
5.57823e-14
5.38159e-14
4.90624e-14
4.15776e-14
3.18627e-14
2.10581e-14
1.07722e-14
2.57961e-15
-2.54673e-15
-4.5509e-15
-4.19927e-15
-2.65956e-15
-1.00233e-15
1.31152e-16
5.88945e-16
5.52369e-16
3.07509e-16
7.37312e-17
-5.72139e-17
-9.33099e-17
-8.17117e-17
-6.22252e-17
-5.14739e-17
-4.91978e-17
-5.01438e-17
-5.09918e-17
-5.115e-17
-5.10592e-17
-5.10104e-17
-5.10136e-17
-5.10207e-17
-5.1021e-17
-5.10204e-17
-5.10203e-17
1.12315e-34
7.60794e-34
1.31837e-34
-5.75179e-33
-1.27094e-32
1.84123e-32
1.34032e-31
1.37493e-31
-7.01939e-31
-2.44484e-30
-7.51035e-32
1.69602e-29
3.59573e-29
-3.94364e-29
-3.22496e-28
-4.23652e-28
1.17594e-27
5.18558e-27
3.79139e-27
-2.35063e-26
-7.34679e-26
-2.08454e-26
3.79359e-25
9.47862e-25
-3.11736e-26
-5.24997e-24
-1.14693e-23
2.08018e-24
6.38281e-23
1.32932e-22
-1.63896e-23
-6.8341e-22
-1.47993e-21
-2.00267e-22
6.30547e-21
1.54811e-20
8.336e-21
-4.69743e-20
-1.45258e-19
-1.49496e-19
2.29735e-19
1.1348e-18
1.83191e-18
1.40005e-19
-6.38706e-18
-1.59992e-17
-1.6633e-17
1.39563e-17
8.97813e-17
1.76335e-16
1.52684e-16
-1.64414e-16
-8.69994e-16
-1.7012e-15
-1.80694e-15
1.39007e-16
5.19873e-15
1.28371e-14
1.95712e-14
1.86265e-14
1.53141e-15
-3.82799e-14
-1.01119e-13
-1.78222e-13
-2.5259e-13
-3.04016e-13
-3.16607e-13
-2.85365e-13
-2.18576e-13
-1.34681e-13
-5.51022e-14
3.52102e-15
3.42166e-14
3.99578e-14
3.00514e-14
1.50273e-14
2.57183e-15
-4.08225e-15
-5.43402e-15
-3.80289e-15
-1.51143e-15
8.82633e-17
6.91421e-16
6.09975e-16
2.85662e-16
7.9307e-18
-1.34711e-16
-1.74564e-16
-1.7111e-16
-1.62013e-16
-1.58361e-16
-1.584e-16
-1.59008e-16
-1.59184e-16
-1.59137e-16
-1.59103e-16
-1.59104e-16
-1.59108e-16
-1.59108e-16
-1.59108e-16
8.1804e-34
-1.07951e-33
-9.09028e-33
-9.62368e-33
5.04982e-32
1.74402e-31
-2.32679e-32
-1.32449e-30
-2.53209e-30
4.20774e-30
2.63136e-29
2.54817e-29
-1.24659e-28
-4.28884e-28
-8.52262e-29
2.56993e-27
5.97102e-27
-3.2211e-27
-4.31943e-26
-7.3468e-26
9.49538e-26
6.29271e-25
8.34711e-25
-1.66554e-24
-8.2212e-24
-9.30599e-24
2.24273e-23
9.81906e-23
1.07946e-22
-2.42e-22
-1.07635e-21
-1.31464e-21
1.99719e-21
1.06556e-20
1.59052e-20
-9.53303e-21
-9.10911e-20
-1.76247e-19
-4.45921e-20
6.06949e-19
1.64637e-18
1.65183e-18
-2.21487e-18
-1.16134e-17
-2.07435e-17
-1.03698e-17
4.63272e-17
1.52459e-16
2.32986e-16
9.84162e-17
-4.89805e-16
-1.57403e-15
-2.60539e-15
-2.14073e-15
1.92277e-15
1.11411e-14
2.43191e-14
3.5053e-14
3.05243e-14
-6.7862e-15
-9.36994e-14
-2.38346e-13
-4.32665e-13
-6.49372e-13
-8.46247e-13
-9.77579e-13
-1.00905e-12
-9.30097e-13
-7.58289e-13
-5.33682e-13
-3.05347e-13
-1.15782e-13
1.05908e-14
7.0957e-14
7.96599e-14
5.90457e-14
3.01569e-14
6.79818e-15
-5.82976e-15
-8.96233e-15
-6.71049e-15
-3.04959e-15
-3.13862e-16
8.81972e-16
9.51307e-16
5.64563e-16
1.89091e-16
-1.11488e-17
-6.67967e-17
-6.05464e-17
-4.71208e-17
-4.22288e-17
-4.26114e-17
-4.35231e-17
-4.37078e-17
-4.36156e-17
-4.35765e-17
-4.35832e-17
-4.35875e-17
-4.35872e-17
1.08549e-33
-6.76023e-33
-2.01565e-32
1.31469e-32
1.82074e-31
2.64387e-31
-8.32988e-31
-3.62961e-30
-1.30657e-30
2.32476e-29
5.66231e-29
-4.44266e-29
-4.75733e-28
-6.86773e-28
1.69423e-27
7.95712e-27
5.93312e-27
-3.70089e-26
-1.14419e-25
-2.08456e-26
6.29271e-25
1.46831e-24
-4.09223e-25
-9.05595e-24
-1.74426e-23
1.04019e-23
1.14396e-22
1.98708e-22
-1.36734e-22
-1.28681e-21
-2.21831e-21
1.1132e-21
1.28218e-20
2.40815e-20
-2.05241e-21
-1.09597e-19
-2.44234e-19
-1.09999e-19
7.38385e-19
2.16863e-18
2.23668e-18
-2.94289e-18
-1.52978e-17
-2.59274e-17
-8.28845e-18
6.92302e-17
1.95707e-16
2.50713e-16
-8.5133e-18
-7.95867e-16
-1.93841e-15
-2.48181e-15
-6.90634e-16
5.07331e-15
1.45295e-14
2.34997e-14
2.33217e-14
3.08619e-15
-4.5308e-14
-1.21475e-13
-2.13857e-13
-3.02813e-13
-3.69002e-13
-4.02794e-13
-4.08861e-13
-4.0249e-13
-3.99306e-13
-4.04722e-13
-4.09977e-13
-3.97538e-13
-3.52514e-13
-2.72855e-13
-1.72071e-13
-7.31443e-14
2.27063e-15
4.29614e-14
5.10148e-14
3.80793e-14
1.83031e-14
2.19377e-15
-5.96983e-15
-7.13126e-15
-4.62607e-15
-1.56476e-15
4.34953e-16
1.17955e-15
1.1787e-15
9.71948e-16
8.31746e-16
7.93474e-16
8.01747e-16
8.12566e-16
8.15202e-16
8.14228e-16
8.13558e-16
8.13564e-16
8.13656e-16
8.13665e-16
8.13656e-16
8.13655e-16
-2.38104e-33
-8.72648e-33
8.41066e-33
8.56135e-32
1.09175e-31
-4.32813e-31
-1.71337e-30
-3.15824e-31
1.18844e-29
2.69653e-29
-2.80097e-29
-2.46736e-28
-3.26383e-28
9.76848e-28
4.23656e-27
2.63546e-27
-2.15624e-26
-6.28808e-26
-1.74955e-27
3.79359e-25
8.34709e-25
-4.09225e-25
-5.71747e-24
-1.02672e-23
9.12364e-24
7.63756e-23
1.21531e-22
-1.2939e-22
-9.18833e-22
-1.4245e-21
1.3226e-21
9.95645e-21
1.65483e-20
-8.38428e-21
-9.52657e-20
-1.84289e-19
-1.25566e-20
7.63879e-19
1.85867e-18
1.26401e-18
-4.48572e-18
-1.57518e-17
-2.06427e-17
9.48814e-18
9.92882e-17
2.08548e-16
1.62479e-16
-3.16533e-16
-1.33036e-15
-2.27553e-15
-1.4396e-15
3.4725e-15
1.3125e-14
2.29673e-14
2.06332e-14
-1.15675e-14
-8.56042e-14
-1.89222e-13
-2.68393e-13
-2.24719e-13
6.02219e-14
6.73753e-13
1.61241e-12
2.74496e-12
3.8265e-12
4.57008e-12
4.75147e-12
4.30042e-12
3.3336e-12
2.11138e-12
9.38534e-13
5.5737e-14
-4.30227e-13
-5.5306e-13
-4.39035e-13
-2.36547e-13
-5.82102e-14
4.41573e-14
7.19975e-14
5.4781e-14
2.4625e-14
1.67402e-15
-8.2182e-15
-8.30923e-15
-4.38832e-15
-6.1899e-16
1.48203e-15
2.15856e-15
2.16853e-15
2.05115e-15
1.99374e-15
1.98961e-15
1.99743e-15
2.00044e-15
2.00004e-15
1.99953e-15
1.99951e-15
1.99957e-15
1.99957e-15
1.99957e-15
-1.12494e-32
1.84217e-32
1.30406e-31
1.14663e-31
-7.72066e-31
-2.41761e-30
8.70775e-31
1.94707e-29
3.33163e-29
-7.00208e-29
-3.75981e-28
-2.94236e-28
1.92723e-27
5.9576e-27
-1.21821e-28
-3.84281e-26
-8.02522e-26
6.77103e-26
6.31876e-25
9.47862e-25
-1.66554e-24
-9.05595e-24
-1.02672e-23
2.77979e-23
1.16935e-22
1.09739e-22
-3.69073e-22
-1.38805e-21
-1.25588e-21
4.02586e-21
1.52293e-20
1.56572e-20
-3.49509e-20
-1.52231e-19
-1.97611e-19
2.04782e-19
1.32991e-18
2.28746e-18
-2.58559e-20
-9.28063e-18
-2.22755e-17
-1.82052e-17
3.9742e-17
1.6495e-16
2.63948e-16
7.27525e-17
-7.31495e-16
-2.08846e-15
-2.87193e-15
-5.6828e-16
7.61889e-15
2.14193e-14
3.26401e-14
2.21848e-14
-3.5523e-14
-1.56064e-13
-3.17521e-13
-4.32318e-13
-3.36845e-13
1.82639e-13
1.32162e-12
3.16229e-12
5.58929e-12
8.26095e-12
1.06659e-11
1.22597e-11
1.26379e-11
1.16769e-11