/*--------------------------------*- C++ -*----------------------------------*\
  =========                 |
  \\      /  F ield         | OpenFOAM: The Open Source CFD Toolbox
   \\    /   O peration     | Website:  https://openfoam.org
    \\  /    A nd           | Version:  13
     \\/     M anipulation  |
\*---------------------------------------------------------------------------*/
FoamFile
{
    format      ascii;
    class       volScalarField;
    location    "3.1";
    object      T;
}
// * * * * * * * * * * * * * * * * * * * * * * * * * * * * * * * * * * * * * //

dimensions      [0 0 0 1 0 0 0];

internalField   nonuniform List<scalar> 
10000
(
-7.49091e-116
7.54005e-116
-5.96137e-115
2.96996e-114
-1.48352e-113
7.12329e-113
-3.29317e-112
1.46174e-111
-6.21092e-111
2.5171e-110
-9.68594e-110
3.51859e-109
-1.19733e-108
3.77497e-108
-1.08442e-107
2.75809e-107
-5.85416e-107
8.70939e-107
-4.2933e-108
-5.5111e-106
2.34574e-105
-5.99209e-105
8.5475e-105
5.65813e-105
-7.47806e-104
2.28527e-103
-3.09845e-103
-4.04621e-103
3.17136e-102
-7.02233e-102
8.43914e-103
3.99974e-101
-1.08708e-100
2.96704e-101
5.71996e-100
-1.42674e-99
-3.88997e-100
8.97921e-99
-1.38501e-98
-2.80839e-98
1.20945e-97
-1.10332e-98
-6.58139e-97
8.01726e-97
2.80446e-96
-6.76544e-96
-1.01757e-95
4.22068e-95
3.4339e-95
-2.3322e-94
-1.32266e-94
1.2144e-93
7.53814e-94
-6.0226e-93
-5.75082e-93
2.74311e-92
4.44973e-92
-1.02481e-91
-3.02466e-91
1.97181e-91
1.65524e-90
1.1133e-90
-6.18304e-90
-1.43242e-89
4.93965e-90
7.28753e-89
1.14351e-88
-9.01004e-89
-6.83054e-88
-1.15131e-87
1.1956e-88
5.00977e-87
1.26086e-86
1.4765e-86
-6.34988e-87
-7.4252e-86
-2.06142e-85
-3.97446e-85
-6.12709e-85
-7.91949e-85
-8.73283e-85
-8.21601e-85
-6.47255e-85
-4.03175e-85
-1.61436e-85
1.76455e-86
1.07337e-85
1.17539e-85
8.10514e-86
3.36058e-86
-1.09791e-87
-1.5813e-86
-1.52484e-86
-8.23069e-87
-1.65718e-87
1.66332e-87
2.09659e-87
1.20799e-87
2.67383e-88
-2.13503e-88
1.37301e-113
-1.38454e-113
1.09403e-112
-5.45243e-112
2.72422e-111
-1.3084e-110
6.05033e-110
-2.68619e-109
1.14163e-108
-4.62772e-108
1.78117e-107
-6.47184e-107
2.20277e-106
-6.94655e-106
1.996e-105
-5.07802e-105
1.07824e-104
-1.60539e-104
8.43156e-106
1.01374e-103
-4.31867e-103
1.1038e-102
-1.57599e-102
-1.03719e-102
1.37671e-101
-4.2101e-101
5.71385e-101
7.4377e-101
-5.84118e-100
1.2943e-99
-1.57745e-100
-7.36657e-99
2.00352e-98
-5.49502e-99
-1.05366e-97
2.62985e-97
7.13624e-98
-1.6545e-96
2.55362e-96
5.17268e-96
-2.22912e-95
2.0488e-96
1.21284e-94
-1.47814e-94
-5.1678e-94
1.24704e-93
1.87503e-93
-7.77912e-93
-6.32785e-93
4.29833e-92
2.43784e-92
-2.23812e-91
-1.38969e-91
1.10991e-90
1.0602e-90
-5.05481e-90
-8.20249e-90
1.88807e-89
5.57473e-89
-3.62967e-89
-3.05016e-88
-2.05363e-88
1.13898e-87
2.63997e-87
-9.07455e-88
-1.3425e-86
-2.10769e-86
1.65715e-86
1.25815e-85
2.12167e-85
-2.17536e-86
-9.22427e-85
-2.32249e-84
-2.7211e-84
1.16513e-84
1.36674e-83
3.79543e-83
7.3184e-83
1.12827e-82
1.45838e-82
1.60817e-82
1.513e-82
1.19191e-82
7.42406e-83
2.97218e-83
-3.25656e-84
-1.97718e-83
-2.16479e-83
-1.49261e-83
-6.18739e-84
2.03712e-85
2.9131e-84
2.80848e-84
1.51566e-84
3.04932e-85
-3.06518e-85
-3.86193e-85
-2.22462e-85
-4.92057e-86
3.93417e-86
-2.51261e-111
2.53849e-111
-2.00467e-110
9.9946e-110
-4.99492e-109
2.3996e-108
-1.10991e-107
4.92894e-107
-2.09529e-106
8.49547e-106
-3.27059e-105
1.18863e-104
-4.04658e-104
1.27641e-103
-3.66852e-103
9.33577e-103
-1.98309e-102
2.95498e-102
-1.64943e-103
-1.86199e-101
7.93944e-101
-2.03037e-100
2.90169e-100
1.89826e-100
-2.53083e-99
7.74506e-99
-1.0522e-98
-1.36515e-98
1.07431e-97
-2.38216e-97
2.94473e-98
1.35479e-96
-3.6873e-96
1.01633e-96
1.93813e-95
-4.84057e-95
-1.30713e-95
3.04421e-94
-4.70159e-94
-9.51367e-94
4.10258e-93
-3.79953e-94
-2.23187e-92
2.72137e-92
9.50914e-92
-2.29532e-91
-3.45011e-91
1.43173e-90
1.16441e-90
-7.91069e-90
-4.4869e-90
4.11894e-89
2.55831e-89
-2.04253e-88
-1.95177e-88
9.30137e-88
1.50987e-87
-3.47352e-87
-1.02601e-86
6.67171e-87
5.61259e-86
3.78286e-86
-2.09513e-85
-4.85854e-85
1.66456e-85
2.4696e-84
3.87934e-84
-3.04337e-84
-2.31412e-83
-3.9043e-83
3.95054e-84
1.69597e-82
4.27183e-82
5.00767e-82
-2.13456e-82
-2.51207e-81
-6.97792e-81
-1.34563e-80
-2.07466e-80
-2.68173e-80
-2.95722e-80
-2.7822e-80
-2.19173e-80
-1.36509e-80
-5.46413e-81
6.00174e-82
3.63679e-81
3.98127e-81
2.74476e-81
1.13755e-81
-3.77479e-83
-5.35888e-82
-5.16527e-82
-2.787e-82
-5.60274e-83
5.6405e-83
7.10349e-83
4.09092e-83
9.04193e-84
-7.23905e-84
4.48781e-109
-4.54305e-109
3.58546e-108
-1.78829e-107
8.93962e-107
-4.29585e-106
1.98753e-105
-8.82856e-105
3.75396e-104
-1.52244e-103
5.86248e-103
-2.13111e-102
7.25691e-102
-2.2896e-101
6.58228e-101
-1.67559e-100
3.56073e-100
-5.31024e-100
3.14707e-101
3.33863e-99
-1.42492e-98
3.64614e-98
-5.21603e-98
-3.3909e-98
4.54198e-97
-1.39101e-96
1.89176e-96
2.44596e-96
-1.92899e-95
4.28047e-95
-5.36911e-96
-2.43248e-94
6.6253e-94
-1.83556e-94
-3.48047e-93
8.69857e-93
2.33693e-93
-5.46841e-92
8.45131e-92
1.70825e-91
-7.37165e-91
6.88119e-92
4.00974e-90
-4.89161e-90
-1.70827e-89
4.12471e-89
6.19777e-89
-2.57261e-88
-2.09186e-88
1.42139e-87
8.06253e-88
-7.40066e-87
-4.5981e-87
3.66972e-86
3.508e-86
-1.67097e-85
-2.71345e-85
6.23873e-85
1.84359e-84
-1.1972e-84
-1.00829e-83
-6.8033e-84
3.76249e-83
8.72964e-83
-2.98047e-83
-4.43518e-82
-6.97097e-82
5.45616e-82
4.15537e-81
7.01437e-81
-6.99876e-82
-3.04415e-80
-7.67089e-80
-8.99723e-80
3.81706e-80
4.50749e-79
1.25243e-78
2.41546e-78
3.72431e-78
4.81423e-78
5.30885e-78
4.99464e-78
3.93455e-78
2.45046e-78
9.80682e-79
-1.07995e-79
-6.53072e-79
-7.1482e-79
-4.92754e-79
-2.04173e-79
6.83068e-81
9.62424e-80
9.27434e-80
5.00311e-80
1.00496e-80
-1.01335e-80
-1.27559e-80
-7.34435e-81
-1.62203e-81
1.30044e-81
-7.81891e-107
7.93179e-107
-6.25582e-106
3.12145e-105
-1.56085e-104
7.50272e-104
-3.4722e-103
1.54276e-102
-6.56163e-102
2.66179e-101
-1.02524e-100
3.72785e-100
-1.26974e-99
4.00714e-99
-1.15232e-98
2.93428e-98
-6.2382e-98
9.3114e-98
-5.85375e-99
-5.84057e-97
2.49521e-96
-6.38879e-96
9.14906e-96
5.90854e-96
-7.95319e-95
2.43763e-94
-3.3188e-94
-4.27559e-94
3.3795e-93
-7.505e-93
9.55635e-94
4.26138e-92
-1.16156e-91
3.23541e-92
6.09846e-91
-1.52525e-90
-4.07568e-91
9.58473e-90
-1.48234e-89
-2.9928e-89
1.29244e-88
-1.21637e-89
-7.02909e-88
8.57948e-88
2.99437e-87
-7.23243e-87
-1.08636e-86
4.51052e-86
3.66688e-86
-2.492e-85
-1.41363e-85
1.29746e-84
8.06393e-85
-6.4333e-84
-6.15224e-84
2.92904e-83
4.75822e-83
-1.09333e-82
-3.23233e-82
2.09606e-82
1.76742e-81
1.19392e-81
-6.59276e-81
-1.53047e-80
5.20637e-81
7.77186e-80
1.22227e-79
-9.54358e-80
-7.28046e-79
-1.22962e-78
1.20878e-79
5.33129e-78
1.34401e-77
1.57732e-77
-6.65858e-78
-7.89127e-77
-2.19329e-76
-4.23052e-76
-6.52325e-76
-8.43253e-76
-9.29903e-76
-8.74865e-76
-6.89164e-76
-4.29191e-76
-1.71732e-76
1.89627e-77
1.14428e-76
1.25226e-76
8.63129e-77
3.57554e-77
-1.2064e-78
-1.6865e-77
-1.62479e-77
-8.76319e-78
-1.75872e-78
1.77638e-78
2.23499e-78
1.28649e-78
2.83897e-79
-2.27946e-79
1.32802e-104
-1.35019e-104
1.06416e-103
-5.31214e-103
2.65709e-102
-1.2776e-101
5.91439e-101
-2.62862e-100
1.11831e-99
-4.53775e-99
1.74827e-98
-6.35852e-98
2.16634e-97
-6.83857e-97
1.96711e-96
-5.01076e-96
1.06576e-95
-1.59225e-95
1.06103e-96
9.96294e-95
-4.26081e-94
1.09165e-93
-1.565e-93
-1.00368e-93
1.35802e-92
-4.1657e-92
5.67811e-92
7.28738e-92
-5.7737e-91
1.28323e-90
-1.6595e-91
-7.27993e-90
1.98595e-89
-5.56263e-90
-1.04204e-88
2.60812e-88
6.92991e-89
-1.63827e-87
2.53558e-87
5.1131e-87
-2.20979e-86
2.09747e-87
1.20164e-85
-1.46748e-85
-5.11851e-85
1.23672e-84
1.85693e-84
-7.7121e-84
-6.26829e-84
4.26066e-83
2.4171e-83
-2.21824e-82
-1.37916e-82
1.09983e-81
1.05222e-81
-5.00692e-81
-8.13702e-81
1.86851e-80
5.52663e-80
-3.57856e-80
-3.02123e-79
-2.04334e-79
1.12653e-78
2.61665e-78
-8.86742e-79
-1.32807e-77
-2.08996e-77
1.62772e-77
1.24391e-76
2.10204e-76
-2.03402e-77
-9.10478e-76
-2.29637e-75
-2.69663e-75
1.13243e-75
1.34717e-74
3.74549e-74
7.22534e-74
1.11418e-73
1.44033e-73
1.58836e-73
1.49435e-73
1.17713e-73
7.33039e-74
2.93252e-74
-3.24725e-75
-1.95516e-74
-2.1393e-74
-1.47433e-74
-6.10596e-75
2.07843e-76
2.88198e-75
2.77581e-75
1.49678e-75
3.00123e-76
-3.03672e-76
-3.81874e-76
-2.19753e-76
-4.84531e-77
3.89639e-77
-2.19756e-102
2.23951e-102
-1.76379e-101
8.80869e-101
-4.40744e-100
2.11991e-99
-9.81672e-99
4.3643e-98
-1.85727e-97
7.53839e-97
-2.90515e-96
1.05691e-95
-3.60187e-95
1.13734e-94
-3.27256e-94
8.33903e-94
-1.7745e-93
2.65368e-93
-1.87316e-94
-1.65617e-92
7.09063e-92
-1.81792e-91
2.60916e-91
1.66108e-91
-2.25983e-90
6.93799e-90
-9.46838e-90
-1.21036e-89
9.61338e-89
-2.13843e-88
2.81005e-89
1.21206e-87
-3.30927e-87
9.32329e-88
1.73528e-86
-4.34665e-86
-1.14805e-86
2.72912e-85
-4.22717e-85
-8.51353e-85
3.68237e-84
-3.52621e-85
-2.00207e-83
2.44639e-83
8.52734e-83
-2.06108e-82
-3.09352e-82
1.28516e-81
1.04432e-81
-7.09972e-81
-4.02801e-81
3.69623e-80
2.29893e-80
-1.83254e-79
-1.75398e-79
8.34157e-79
1.35621e-78
-3.11217e-78
-9.20962e-78
5.95411e-78
5.03338e-77
3.40852e-77
-1.87603e-76
-4.36016e-76
1.47166e-76
2.21178e-75
3.48294e-75
-2.70538e-75
-2.07128e-74
-3.50225e-74
3.33232e-75
1.51537e-73
3.82385e-73
4.49323e-73
-1.87653e-73
-2.24131e-72
-6.23349e-72
-1.20264e-71
-1.85465e-71
-2.39764e-71
-2.64409e-71
-2.48758e-71
-1.95948e-71
-1.22016e-71
-4.88024e-72
5.42002e-73
3.25577e-72
3.56176e-72
2.45433e-72
1.01619e-72
-3.49101e-74
-4.79977e-73
-4.62169e-73
-2.49154e-73
-4.99112e-74
5.05947e-74
6.35898e-74
3.6583e-74
8.05896e-75
-6.49118e-75
3.54056e-100
-3.61718e-100
2.8466e-99
-1.42234e-98
7.11909e-98
-3.42535e-97
1.58671e-96
-7.05641e-96
3.00386e-95
-1.21959e-94
4.70145e-94
-1.71091e-93
5.83238e-93
-1.84222e-92
5.30245e-92
-1.35165e-91
2.87768e-91
-4.30779e-91
3.21926e-92
2.68124e-90
-1.14925e-89
2.94861e-89
-4.23703e-89
-2.6766e-89
3.66254e-88
-1.12547e-87
1.5379e-87
1.9577e-87
-1.559e-86
3.47098e-86
-4.63705e-87
-1.96547e-85
5.37109e-85
-1.52241e-85
-2.81454e-84
7.05587e-84
1.85191e-84
-4.42812e-83
6.86433e-83
1.38065e-82
-5.97682e-82
5.77615e-83
3.249e-81
-3.97243e-81
-1.38371e-80
3.34572e-80
5.01959e-80
-2.08596e-79
-1.69466e-79
1.15232e-78
6.53813e-79
-5.99893e-78
-3.73258e-78
2.97402e-77
2.84784e-77
-1.35359e-76
-2.2017e-76
5.04879e-76
1.49482e-75
-9.64846e-76
-8.16767e-75
-5.53831e-75
3.04291e-74
7.07659e-74
-2.37844e-74
-3.5877e-73
-5.65356e-73
4.37911e-73
3.35922e-72
5.68348e-72
-5.31132e-73
-2.45644e-71
-6.20171e-71
-7.29223e-71
3.02783e-71
3.63171e-70
1.0104e-69
1.94964e-69
3.00683e-69
3.88729e-69
4.28693e-69
4.03318e-69
3.17688e-69
1.97811e-69
7.91004e-70
-8.81224e-71
-5.28053e-70
-5.77573e-70
-3.97936e-70
-1.64717e-70
5.71309e-72
7.78581e-71
7.49481e-71
4.03944e-71
8.08384e-72
-8.21047e-72
-1.03135e-71
-5.93155e-72
-1.30545e-72
1.05329e-72
-5.55004e-98
5.68525e-98
-4.47042e-97
2.23486e-96
-1.119e-95
5.386e-95
-2.4958e-94
1.11031e-93
-4.72805e-93
1.92024e-92
-7.40472e-92
2.69549e-91
-9.19162e-91
2.90419e-90
-8.36197e-90
2.13239e-89
-4.54227e-89
6.80685e-89
-5.38305e-90
-4.22462e-88
1.81299e-87
-4.65507e-87
6.69755e-87
4.19638e-87
-5.77748e-86
1.77707e-85
-2.43152e-85
-3.08162e-85
2.46082e-84
-5.48394e-84
7.45226e-85
3.10222e-83
-8.48543e-83
2.42044e-83
4.44337e-82
-1.11489e-81
-2.90675e-82
6.99343e-81
-1.08503e-80
-2.17933e-80
9.44269e-80
-9.21327e-81
-5.13213e-79
6.27883e-79
2.18551e-78
-5.2865e-78
-7.92794e-78
3.29563e-77
2.67674e-77
-1.82047e-76
-1.033e-76
9.47699e-76
5.89906e-76
-4.69801e-75
-4.50086e-75
2.13798e-74
3.47917e-74
-7.97229e-74
-2.36168e-73
1.52175e-73
1.29007e-72
8.75981e-73
-4.80403e-72
-1.11796e-71
3.74071e-72
5.66446e-71
8.93269e-71
-6.89862e-71
-5.30278e-70
-8.97761e-70
8.22973e-71
3.87567e-69
9.79009e-69
1.15197e-68
-4.75383e-69
-5.72749e-68
-1.59406e-67
-3.0763e-67
-4.74476e-67
-6.13435e-67
-6.7651e-67
-6.36465e-67
-5.01322e-67
-3.12131e-67
-1.24786e-67
1.39473e-68
8.33619e-68
9.11611e-68
6.27989e-68
2.59867e-68
-9.10382e-70
-1.2293e-68
-1.183e-68
-6.37428e-69
-1.2743e-69
1.29691e-69
1.62813e-69
9.36086e-70
2.05816e-70
-1.66358e-70
8.4586e-96
-8.68927e-96
6.82654e-95
-3.41464e-94
1.71036e-93
-8.23557e-93
3.81767e-92
-1.69898e-91
7.2373e-91
-2.94033e-90
1.13421e-89
-4.13015e-89
1.40884e-88
-4.45289e-88
1.28257e-87
-3.27204e-87
6.97372e-87
-1.04622e-86
8.75253e-88
6.4738e-86
-2.78179e-85
7.14829e-85
-1.02983e-84
-6.3966e-85
8.86425e-84
-2.72926e-83
3.73963e-83
4.71743e-83
-3.77812e-82
8.42786e-82
-1.16565e-82
-4.76253e-81
1.30397e-80
-3.74422e-81
-6.82313e-80
1.71355e-79
4.4362e-80
-1.07433e-78
1.66831e-78
3.34598e-78
-1.45112e-77
1.43003e-78
7.88542e-77
-9.6537e-77
-3.35766e-76
8.12517e-76
1.21795e-75
-5.06471e-75
-4.11252e-75
2.79756e-74
1.58756e-74
-1.45629e-73
-9.06873e-74
7.21878e-73
6.91936e-73
-3.28471e-72
-5.34789e-72
1.22447e-71
3.6294e-71
-2.3344e-71
-1.98201e-70
-1.34778e-70
7.37718e-70
1.71796e-69
-5.72122e-70
-8.69901e-69
-1.37286e-68
1.05695e-68
8.14203e-68
1.37939e-67
-1.23861e-68
-5.94758e-67
-1.50323e-66
-1.77013e-66
7.25737e-67
8.78536e-66
2.44607e-65
4.72125e-65
7.2824e-65
9.41556e-65
1.03839e-64
9.7692e-65
7.69467e-65
4.79049e-65
1.91471e-65
-2.14741e-66
-1.28004e-65
-1.3995e-65
-9.63936e-66
-3.98762e-66
1.41162e-67
1.88789e-66
1.81621e-66
9.78357e-67
1.95368e-67
-1.99265e-67
-2.49999e-67
-1.43688e-67
-3.15597e-68
2.55576e-68
-1.2524e-93
1.29046e-93
-1.01287e-92
5.06939e-92
-2.54025e-91
1.22366e-90
-5.67462e-90
2.52634e-89
-1.07657e-88
4.37538e-88
-1.68836e-87
6.1502e-87
-2.09863e-86
6.63545e-86
-1.91194e-85
4.8798e-85
-1.04064e-84
1.56305e-84
-1.38292e-85
-9.64115e-84
4.14844e-83
-1.06691e-82
1.5392e-82
9.47264e-83
-1.32182e-81
4.07417e-81
-5.59067e-81
-7.01784e-81
5.63789e-80
-1.25896e-79
1.77329e-80
7.10636e-79
-1.94773e-78
5.63156e-79
1.01837e-77
-2.55997e-77
-6.57809e-78
1.60413e-76
-2.49339e-76
-4.99309e-76
2.1676e-75
-2.15838e-76
-1.17765e-74
1.44274e-74
5.01397e-74
-1.21386e-73
-1.81868e-73
7.56552e-73
6.14147e-73
-4.1787e-72
-2.37154e-72
2.17517e-71
1.35515e-71
-1.07815e-70
-1.03398e-70
4.90514e-70
7.99026e-70
-1.82798e-69
-5.42147e-69
3.4804e-69
2.95978e-68
2.01576e-68
-1.10109e-67
-2.56604e-67
8.50296e-68
1.29847e-66
2.05089e-66
-1.57375e-66
-1.21509e-65
-2.06004e-65
1.80908e-66
8.8709e-65
2.24344e-64
2.64382e-64
-1.07649e-64
-1.30972e-63
-3.64809e-63
-7.0424e-63
-1.08636e-62
-1.40463e-62
-1.54911e-62
-1.45741e-62
-1.14789e-62
-7.14592e-63
-2.85543e-63
3.21403e-64
1.91041e-63
2.08824e-63
1.43808e-63
5.94716e-64
-2.12838e-65
-2.81806e-64
-2.71016e-64
-1.45949e-64
-2.91104e-65
2.97587e-65
3.73109e-65
2.14372e-65
4.70327e-66
-3.81642e-66
1.80002e-91
-1.86074e-91
1.45903e-90
-7.30699e-90
3.66308e-89
-1.76532e-88
8.18995e-88
-3.64764e-87
1.555e-86
-6.32226e-86
2.44053e-85
-8.8934e-85
3.03581e-84
-9.60226e-84
2.76791e-83
-7.06772e-83
1.50816e-82
-2.26809e-82
2.12189e-83
1.3943e-81
-6.0081e-81
1.54656e-80
-2.23446e-80
-1.36172e-80
1.91425e-79
-5.90678e-79
8.11807e-79
1.01375e-78
-8.17086e-78
1.82658e-77
-2.62182e-78
-1.02983e-76
2.82567e-76
-8.22945e-77
-1.47618e-75
3.71458e-75
9.46941e-76
-2.32632e-74
3.61953e-74
7.23645e-74
-3.14477e-73
3.16549e-74
1.70819e-72
-2.09424e-72
-7.27201e-72
1.76133e-71
2.63761e-71
-1.09763e-70
-8.90768e-71
6.06227e-70
3.44085e-70
-3.15551e-69
-1.96684e-69
1.56395e-68
1.50073e-68
-7.11433e-68
-1.15952e-67
2.65041e-67
7.86562e-67
-5.03932e-67
-4.29279e-66
-2.92834e-66
1.59615e-65
3.72262e-65
-1.22702e-65
-1.8824e-64
-2.97572e-64
2.27548e-64
1.76115e-63
2.98808e-63
-2.56177e-64
-1.28497e-62
-3.25173e-62
-3.83523e-62
1.55018e-62
1.89618e-61
5.28393e-61
1.0202e-60
1.57388e-60
2.03508e-60
2.24445e-60
2.11158e-60
1.66309e-60
1.03523e-60
4.13556e-61
-4.67265e-62
-2.76913e-61
-3.02619e-61
-2.08365e-61
-8.61393e-62
3.11814e-63
4.08546e-62
3.92766e-62
2.11449e-62
4.21224e-63
-4.31644e-63
-5.40812e-63
-3.10611e-63
-6.80681e-64
5.535e-64
-2.50912e-89
2.60281e-89
-2.0387e-88
1.0217e-87
-5.12429e-87
2.47066e-86
-1.14674e-85
5.10958e-85
-2.17915e-84
8.86347e-84
-3.42286e-83
1.24779e-82
-4.26108e-82
1.34832e-81
-3.88828e-81
9.93336e-81
-2.12104e-80
3.19398e-80
-3.15936e-81
-1.95652e-79
8.4436e-79
-2.17554e-78
3.14808e-78
1.89854e-78
-2.69003e-77
8.31049e-77
-1.14405e-76
-1.42077e-76
1.14914e-75
-2.57187e-75
3.76448e-76
1.44822e-74
-3.97829e-74
1.16747e-74
2.07651e-73
-5.23081e-73
-1.32223e-73
3.27394e-72
-5.09929e-72
-1.01774e-71
4.42773e-71
-4.5076e-72
-2.40454e-70
2.95026e-70
1.02353e-69
-2.48026e-69
-3.71225e-69
1.54546e-68
1.25381e-68
-8.53514e-68
-4.84488e-68
4.44247e-67
2.77039e-67
-2.20165e-66
-2.11391e-66
1.00136e-65
1.633e-65
-3.72923e-65
-1.10747e-64
7.08019e-65
6.0422e-64
4.12874e-64
-2.24535e-63
-5.24098e-63
1.7178e-63
2.64822e-62
4.19012e-62
-3.1923e-62
-2.47709e-61
-4.20616e-61
3.51341e-62
1.80617e-60
4.57375e-60
5.39919e-60
-2.16536e-60
-2.66386e-59
-7.42657e-59
-1.43414e-58
-2.21268e-58
-2.8612e-58
-3.15563e-58
-2.96881e-58
-2.33817e-58
-1.45533e-58
-5.81211e-59
6.59337e-60
3.89511e-59
4.25563e-59
2.92963e-59
1.21069e-59
-4.43523e-61
-5.7477e-60
-5.52364e-60
-2.97275e-60
-5.91416e-61
6.07594e-61
7.60702e-61
4.36734e-61
9.55887e-62
-7.79027e-62
3.38903e-87
-3.52875e-87
2.7608e-86
-1.38458e-85
6.94778e-85
-3.35154e-84
1.55635e-83
-6.93786e-83
2.9602e-82
-1.20456e-81
4.65368e-81
-1.69719e-80
5.79816e-80
-1.83547e-79
5.29554e-79
-1.35355e-78
2.89221e-78
-4.36131e-78
4.5613e-79
2.66151e-77
-1.15048e-76
2.96723e-76
-4.30074e-76
-2.56489e-76
3.66501e-75
-1.13369e-74
1.56338e-74
1.93019e-74
-1.56696e-73
3.5113e-73
-5.24479e-74
-1.97462e-72
5.43097e-72
-1.60654e-72
-2.83212e-71
7.14234e-71
1.7892e-71
-4.46753e-70
6.96611e-70
1.3878e-69
-6.04477e-69
6.22703e-70
3.28193e-68
-4.03009e-68
-1.39684e-67
3.38661e-67
5.06596e-67
-2.10992e-66
-1.71119e-66
1.16518e-65
6.6147e-66
-6.06438e-65
-3.78384e-65
3.00521e-64
2.88726e-64
-1.36662e-63
-2.23e-63
5.08766e-63
1.51195e-62
-9.64429e-63
-8.24612e-62
-5.64488e-62
3.06252e-61
7.15456e-61
-2.331e-61
-3.61229e-60
-5.72098e-60
4.34155e-60
3.37807e-59
5.74093e-59
-4.66157e-60
-2.46145e-58
-6.23753e-58
-7.37006e-58
2.93127e-58
3.62822e-57
1.012e-56
1.95464e-56
3.01601e-56
3.90018e-56
4.30162e-56
4.04694e-56
3.18718e-56
1.9836e-56
7.91944e-57
-9.02219e-58
-5.31226e-57
-5.80241e-57
-3.99367e-57
-1.64978e-57
6.12002e-59
7.84035e-58
7.53175e-58
4.05211e-58
8.0502e-59
-8.29284e-59
-1.03745e-58
-5.95373e-59
-1.30139e-59
1.06313e-59
-4.43107e-85
4.63243e-85
-3.61981e-84
1.81681e-83
-9.12157e-83
4.40253e-82
-2.04545e-81
9.12269e-81
-3.89428e-80
1.58538e-79
-6.12774e-79
2.23578e-78
-7.64155e-78
2.42012e-77
-6.98568e-77
1.78654e-76
-3.82023e-76
5.76924e-76
-6.38019e-77
-3.5066e-75
1.5184e-74
-3.92032e-74
5.69206e-74
3.35432e-74
-4.83671e-73
1.49813e-72
-2.06977e-72
-2.53951e-72
2.06978e-71
-4.64407e-71
7.0843e-72
2.608e-70
-7.18239e-70
2.14252e-70
3.74177e-69
-9.44773e-69
-2.34399e-69
5.9056e-68
-9.21931e-68
-1.83316e-67
7.99448e-67
-8.33814e-68
-4.33944e-66
5.3333e-66
1.84668e-65
-4.47971e-65
-6.69711e-65
2.79053e-64
2.2624e-64
-1.54094e-63
-8.74883e-64
8.01968e-63
5.00665e-63
-3.97382e-62
-3.82041e-62
1.80678e-61
2.95015e-61
-6.72373e-61
-1.99966e-60
1.27247e-60
1.0902e-59
7.47721e-60
-4.04633e-59
-9.46156e-59
3.06302e-59
4.7731e-58
7.56709e-58
-5.71864e-58
-4.4625e-57
-7.59073e-57
5.97599e-58
3.24927e-56
8.24017e-56
9.74589e-56
-3.84184e-56
-4.78656e-55
-1.33579e-54
-2.58052e-54
-3.98215e-54
-5.14982e-54
-5.68002e-54
-5.34372e-54
-4.20832e-54
-2.61888e-54
-1.04524e-54
1.19615e-55
7.01815e-55
7.66357e-55
5.27357e-55
2.17762e-55
-8.18508e-57
-1.03602e-55
-9.94821e-56
-5.35023e-56
-1.06133e-56
1.09647e-56
1.37057e-56
7.86202e-57
1.71612e-57
-1.40547e-57
5.60225e-83
-5.88251e-83
4.5905e-82
-2.30596e-81
1.15841e-80
-5.59432e-80
2.6006e-79
-1.16049e-78
4.95641e-78
-2.01879e-77
7.80671e-77
-2.84973e-76
9.74459e-76
-3.08767e-75
8.91716e-75
-2.28185e-74
4.88319e-74
-7.3861e-74
8.63874e-75
4.47017e-73
-1.93923e-72
5.0125e-72
-7.29128e-72
-4.242e-72
6.17667e-71
-1.9159e-70
2.65214e-70
3.23249e-70
-2.64572e-69
5.94458e-69
-9.26851e-70
-3.33339e-68
9.19281e-68
-2.76654e-68
-4.78414e-67
1.20951e-66
2.96993e-67
-7.55503e-66
1.1809e-65
2.34329e-65
-1.02327e-64
1.0812e-65
5.55291e-64
-6.83099e-64
-2.36276e-63
5.73493e-63
8.56823e-63
-3.57189e-62
-2.89482e-62
1.97227e-61
1.1199e-61
-1.0264e-60
-6.41155e-61
5.08543e-60
4.89256e-60
-2.31178e-59
-3.77729e-59
8.59947e-59
2.55955e-58
-1.6246e-58
-1.39491e-57
-9.58638e-58
5.17377e-57
1.21096e-56
-3.89363e-57
-6.10357e-56
-9.68678e-56
7.28809e-56
5.70487e-55
9.71331e-55
-7.39213e-56
-4.15068e-54
-1.05346e-53
-1.24726e-53
4.87005e-54
6.11045e-53
1.7062e-52
3.29678e-52
5.08799e-52
6.58029e-52
7.25794e-52
6.82819e-52
5.37718e-52
3.34594e-52
1.33496e-52
-1.53501e-53
-8.97278e-53
-9.79503e-53
-6.73883e-53
-2.78145e-53
1.06004e-54
1.32484e-53
1.27159e-53
6.83611e-54
1.35393e-54
-1.40306e-54
-1.75226e-54
-1.00468e-54
-2.18974e-55
1.79819e-55
-6.84143e-81
7.21786e-81
-5.62444e-80
2.82793e-79
-1.42151e-78
6.86922e-78
-3.19517e-77
1.42662e-76
-6.09644e-76
2.48447e-75
-9.6125e-75
3.51071e-74
-1.20109e-73
3.80777e-73
-1.10029e-72
2.81734e-72
-6.03422e-72
9.14236e-72
-1.13117e-72
-5.50787e-71
2.39413e-70
-6.1958e-70
9.03025e-70
5.18175e-70
-7.6249e-69
2.36872e-68
-3.2858e-68
-3.97647e-68
3.26939e-67
-7.35674e-67
1.17339e-67
4.11873e-66
-1.13754e-65
3.45537e-66
5.91344e-65
-1.49704e-64
-3.63537e-65
9.34404e-64
-1.46248e-63
-2.89572e-63
1.26628e-62
-1.35631e-63
-6.86974e-62
8.4592e-62
2.92264e-61
-7.09825e-61
-1.0598e-60
4.42028e-60
3.58099e-60
-2.44054e-59
-1.38597e-59
1.27002e-58
7.93841e-59
-6.2919e-58
-6.05783e-58
2.85967e-57
4.6759e-57
-1.06329e-56
-3.16747e-56
2.005e-56
1.72549e-55
1.18838e-55
-6.39533e-55
-1.49843e-54
4.78286e-55
7.54537e-54
1.19888e-53
-8.97732e-54
-7.05048e-53
-1.20167e-52
8.80956e-54
5.1255e-52
1.30199e-51
1.54323e-51
-5.96425e-52
-7.54028e-51
-2.10669e-50
-4.07154e-50
-6.28441e-50
-8.12811e-50
-8.96539e-50
-8.43452e-50
-6.6419e-50
-4.13246e-50
-1.64816e-50
1.90478e-51
1.10902e-50
1.21027e-50
8.32448e-51
3.43434e-51
-1.32807e-52
-1.63785e-51
-1.57128e-51
-8.44375e-52
-1.66949e-52
1.73574e-52
2.16571e-52
1.24112e-52
2.70077e-53
-2.22422e-53
8.05991e-79
-8.54749e-79
6.65011e-78
-3.34695e-77
1.68354e-76
-8.14101e-76
3.78919e-75
-1.6929e-74
7.23865e-74
-2.95165e-73
1.14265e-72
-4.17552e-72
1.42932e-71
-4.53385e-71
1.31087e-70
-3.35882e-70
7.20041e-70
-1.09287e-69
1.43097e-70
6.55198e-69
-2.85403e-68
7.39551e-68
-1.08014e-67
-6.10651e-68
9.08871e-67
-2.82806e-66
3.93167e-66
4.72209e-66
-3.9013e-65
8.79249e-65
-1.43595e-65
-4.91426e-64
1.35939e-63
-4.16998e-64
-7.05836e-63
1.78948e-62
4.29382e-63
-1.11604e-61
1.74924e-61
3.45547e-61
-1.51332e-60
1.64427e-61
8.20754e-60
-1.01171e-59
-3.49124e-59
8.48479e-59
1.2659e-58
-5.28278e-58
-4.27795e-58
2.91653e-57
1.6565e-57
-1.51762e-56
-9.49246e-57
7.51781e-56
7.24392e-56
-3.41613e-55
-5.59011e-55
1.26961e-54
3.78549e-54
-2.38926e-54
-2.06125e-53
-1.42286e-53
7.63393e-53
1.79061e-52
-5.67081e-53
-9.00758e-52
-1.43296e-51
1.06758e-51
8.41425e-51
1.43567e-50
-1.00978e-51
-6.11155e-50
-1.5539e-49
-1.84399e-49
7.04842e-50
8.98418e-49
2.5117e-48
4.85546e-48
7.49529e-48
9.69485e-48
1.06938e-47
1.00606e-47
7.92203e-48
4.92837e-48
1.96482e-48
-2.28304e-49
-1.32367e-48
-1.44402e-48
-9.92977e-49
-4.09458e-49
1.60789e-50
1.95533e-49
1.8749e-49
1.00709e-49
1.98759e-50
-2.0737e-50
-2.58481e-50
-1.48051e-50
-3.21621e-51
2.65685e-51
-9.14835e-77
9.75681e-77
-7.57803e-76
3.8181e-75
-1.92195e-74
9.30076e-74
-4.33202e-73
1.93673e-72
-8.28659e-72
3.38107e-71
-1.30968e-70
4.78874e-70
-1.64021e-69
5.20591e-69
-1.50614e-68
3.86195e-68
-8.28697e-68
1.26019e-67
-1.74697e-68
-7.51558e-67
3.28125e-66
-8.51432e-66
1.24633e-65
6.93347e-66
-1.04481e-64
3.25673e-64
-4.53834e-64
-5.40644e-64
4.49009e-63
-1.01365e-62
1.69674e-63
5.65524e-62
-1.567e-61
4.85694e-62
8.12602e-61
-2.06336e-60
-4.88736e-61
1.28573e-59
-2.01827e-59
-3.97704e-59
1.74454e-58
-1.92423e-59
-9.45855e-58
1.16722e-57
4.02271e-57
-9.78329e-57
-1.45852e-56
6.0901e-56
4.92953e-56
-3.36196e-55
-1.90975e-55
1.74929e-54
1.09494e-54
-8.66447e-54
-8.35595e-54
3.93631e-53
6.44665e-53
-1.4622e-52
-4.36396e-52
2.74582e-52
2.3751e-51
1.64351e-51
-8.78912e-51
-2.064e-50
6.48169e-51
1.03717e-49
1.65213e-49
-1.22417e-49
-9.68541e-49
-1.65448e-48
1.11108e-49
7.02822e-48
1.78873e-47
2.12535e-47
-8.0276e-48
-1.03234e-46
-2.88808e-46
-5.5845e-46
-8.62182e-46
-1.11527e-45
-1.23023e-45
-1.15738e-45
-9.11316e-46
-5.66869e-46
-2.259e-46
2.64004e-47
1.52379e-46
1.66173e-46
1.14238e-46
4.70815e-47
-1.87907e-48
-2.25154e-47
-2.15776e-47
-1.15848e-47
-2.2819e-48
2.38972e-48
2.97554e-48
1.70333e-48
3.6935e-49
-3.06119e-49
9.98996e-75
-1.07208e-74
8.31124e-74
-4.19249e-73
2.11211e-72
-1.02292e-71
4.76813e-71
-2.13326e-70
9.13389e-70
-3.72931e-69
1.44552e-68
-5.28884e-68
1.81266e-67
-5.75699e-67
1.66672e-66
-4.27703e-66
9.18714e-66
-1.39993e-65
2.05582e-66
8.30209e-65
-3.63357e-64
9.44255e-64
-1.38551e-63
-7.57413e-64
1.15687e-62
-3.61277e-62
5.04724e-62
5.96012e-62
-4.9779e-61
1.12581e-60
-1.93355e-61
-6.26885e-60
1.74016e-59
-5.45321e-60
-9.01174e-59
2.29206e-58
5.3535e-59
-1.42693e-57
2.24353e-57
4.40921e-57
-1.93743e-56
2.17115e-57
1.05008e-55
-1.29739e-55
-4.4652e-55
1.08676e-54
1.61884e-54
-6.76371e-54
-5.47216e-54
3.73348e-53
2.12111e-53
-1.94246e-52
-1.21678e-52
9.62019e-52
9.28612e-52
-4.36946e-51
-7.16236e-51
1.62224e-50
4.8466e-50
-3.03933e-50
-2.63644e-49
-1.8291e-49
9.74766e-49
2.292e-48
-7.13237e-49
-1.15042e-47
-1.83508e-47
1.35179e-47
1.07392e-46
1.83679e-46
-1.17098e-47
-7.78503e-46
-1.98343e-45
-2.3599e-45
8.7991e-46
1.14252e-44
3.19866e-44
6.18676e-44
9.55298e-44
1.23582e-43
1.36324e-43
1.2825e-43
1.00979e-43
6.28042e-44
2.50165e-44
-2.94169e-45
-1.68977e-44
-1.84202e-44
-1.26596e-44
-5.21446e-45
2.11716e-46
2.49748e-45
2.39206e-45
1.28362e-45
2.52308e-46
-2.65298e-46
-3.29956e-46
-1.88766e-46
-4.08514e-47
3.39778e-47
-1.0479e-72
1.13231e-72
-8.76014e-72
4.4247e-71
-2.23107e-70
1.08149e-69
-5.04534e-69
2.25909e-68
-9.68006e-68
3.95522e-67
-1.53418e-66
5.61716e-66
-1.92652e-65
6.12291e-65
-1.77397e-64
4.55609e-64
-9.79748e-64
1.49621e-63
-2.32909e-64
-8.81934e-63
3.87025e-62
-1.00737e-61
1.48192e-61
7.94819e-62
-1.23207e-60
3.85539e-60
-5.40082e-60
-6.31752e-60
5.3087e-59
-1.20295e-58
2.12227e-59
6.68451e-58
-1.85915e-57
5.89433e-58
9.61391e-57
-2.44957e-56
-5.63483e-57
1.52349e-55
-2.39951e-55
-4.70232e-55
2.07004e-54
-2.3589e-55
-1.12155e-53
1.38746e-53
4.76818e-53
-1.16143e-52
-1.72855e-52
7.22691e-52
5.84393e-52
-3.98878e-51
-2.26652e-51
2.07514e-50
1.30096e-50
-1.0276e-49
-9.92887e-50
4.66613e-49
7.65592e-49
-1.73139e-48
-5.17847e-48
3.2358e-48
2.81544e-47
1.95872e-47
-1.03996e-46
-2.44863e-46
7.54491e-47
1.22752e-45
1.96101e-45
-1.43544e-45
-1.14546e-44
-1.96178e-44
1.17899e-45
8.2946e-44
2.11567e-43
2.52091e-43
-9.26829e-44
-1.21617e-42
-3.40756e-42
-6.59278e-42
-1.01814e-41
-1.31722e-41
-1.45309e-41
-1.36703e-41
-1.07629e-41
-6.69303e-42
-2.66469e-42
3.15418e-43
1.80255e-42
1.96414e-42
1.34946e-42
5.555e-43
-2.29681e-44
-2.66497e-43
-2.55089e-43
-1.3681e-43
-2.68302e-44
2.83345e-44
3.51969e-44
2.01227e-44
4.34555e-45
-3.62818e-45
1.05409e-70
-1.1477e-70
8.8591e-70
-4.48114e-69
2.26173e-68
-1.09742e-67
5.12436e-67
-2.29648e-66
9.84852e-66
-4.02729e-65
1.56336e-64
-5.72834e-64
1.96613e-63
-6.25359e-63
1.81329e-62
-4.66132e-62
1.00358e-61
-1.53623e-61
2.53689e-62
8.99599e-61
-3.95919e-60
1.0323e-59
-1.5228e-59
-7.99879e-60
1.26022e-58
-3.95207e-58
5.55242e-58
6.42859e-58
-5.43796e-57
1.23481e-56
-2.24053e-57
-6.84625e-56
1.90811e-55
-6.1249e-56
-9.85165e-55
2.51497e-54
5.68974e-55
-1.5625e-53
2.46554e-53
4.81692e-53
-2.12471e-52
2.4644e-53
1.15072e-51
-1.4255e-51
-4.89118e-51
1.19243e-50
1.77301e-50
-7.41805e-50
-5.9952e-50
4.09386e-49
2.32662e-49
-2.12963e-48
-1.33631e-48
1.05444e-47
1.0199e-47
-4.78672e-47
-7.86178e-47
1.77504e-46
5.31538e-46
-3.3085e-46
-2.88818e-45
-2.01533e-45
1.06575e-44
2.51302e-44
-7.6607e-45
-1.25812e-43
-2.01315e-43
1.46357e-43
1.17354e-42
2.01279e-42
-1.13052e-43
-8.48798e-42
-2.16766e-41
-2.58692e-41
9.36621e-42
1.24327e-40
3.48647e-40
6.74764e-40
1.04223e-39
1.3485e-39
1.48765e-39
1.39953e-39
1.10182e-39
6.85075e-40
2.72604e-40
-3.2498e-41
-1.84698e-40
-2.01164e-40
-1.38164e-40
-5.68364e-41
2.3958e-42
2.73155e-41
2.61285e-41
1.40051e-41
2.73981e-42
-2.90705e-42
-3.60634e-42
-2.06034e-42
-4.43913e-43
3.72162e-43
-1.01492e-68
1.11446e-68
-8.58096e-68
4.3474e-67
-2.19659e-66
1.06696e-65
-4.98719e-65
2.23716e-64
-9.60297e-64
3.93036e-63
-1.52703e-62
5.59989e-62
-1.92363e-61
6.1235e-61
-1.77713e-60
4.57288e-60
-9.85827e-60
1.5129e-59
-2.65274e-60
-8.7965e-59
3.88359e-58
-1.01449e-57
1.50099e-57
7.70544e-58
-1.23598e-56
3.88522e-56
-5.47567e-56
-6.26951e-56
5.34186e-55
-1.21573e-54
2.27176e-55
6.72418e-54
-1.87833e-53
6.10925e-54
9.68144e-53
-2.47664e-52
-5.50166e-53
1.53692e-51
-2.43006e-51
-4.73191e-51
2.0917e-50
-2.47197e-51
-1.13237e-49
1.40484e-49
4.8121e-49
-1.17424e-48
-1.74419e-48
7.3031e-48
5.8988e-48
-4.02997e-47
-2.29074e-47
2.09622e-46
1.3166e-46
-1.03775e-45
-1.00489e-45
4.70955e-45
7.74354e-45
-1.74526e-44
-5.23296e-44
3.24356e-44
2.8416e-43
1.98921e-43
-1.04741e-42
-2.47368e-42
7.45309e-43
1.23665e-41
1.98225e-41
-1.43044e-41
-1.15301e-40
-1.98067e-40
1.02845e-41
8.32885e-40
2.12986e-39
2.54613e-39
-9.06482e-40
-1.21863e-38
-3.42055e-38
-6.62239e-38
-1.02306e-37
-1.32383e-37
-1.46049e-37
-1.37397e-37
-1.08163e-37
-6.7241e-38
-2.67411e-38
3.21237e-39
1.81492e-38
1.97575e-38
1.35649e-38
5.57617e-39
-2.39928e-40
-2.68507e-39
-2.56651e-39
-1.37479e-39
-2.68231e-40
2.86058e-40
3.54361e-40
2.02295e-40
4.34768e-41
-3.66127e-41
9.33428e-67
-1.0348e-66
7.94528e-66
-4.03254e-65
2.03995e-64
-9.92061e-64
4.6423e-63
-2.08467e-62
8.95753e-62
-3.66976e-61
1.42712e-60
-5.2383e-60
1.80104e-59
-5.7385e-59
1.66699e-58
-4.2941e-58
9.27042e-58
-1.42662e-57
2.65874e-58
8.23078e-57
-3.64635e-56
9.54461e-56
-1.41673e-55
-7.09086e-56
1.16029e-54
-3.65668e-54
5.1711e-54
5.84935e-54
-5.02344e-53
1.14606e-52
-2.20868e-53
-6.32225e-52
1.77038e-51
-5.83967e-52
-9.10831e-51
2.33526e-50
5.0843e-51
-1.44739e-49
2.29347e-49
4.44997e-49
-1.97165e-48
2.37685e-49
1.0669e-47
-1.32573e-47
-4.53276e-47
1.1072e-46
1.64278e-46
-6.88427e-46
-5.55694e-46
3.7984e-45
2.15953e-45
-1.97558e-44
-1.2421e-44
9.77877e-44
9.48072e-44
-4.4364e-43
-7.30309e-43