/*--------------------------------*- C++ -*----------------------------------*\
  =========                 |
  \\      /  F ield         | OpenFOAM: The Open Source CFD Toolbox
   \\    /   O peration     | Website:  https://openfoam.org
    \\  /    A nd           | Version:  13
     \\/     M anipulation  |
\*---------------------------------------------------------------------------*/
FoamFile
{
    format      ascii;
    class       volScalarField;
    location    "7.8";
    object      T;
}
// * * * * * * * * * * * * * * * * * * * * * * * * * * * * * * * * * * * * * //

dimensions      [0 0 0 1 0 0 0];

internalField   nonuniform List<scalar> 
10000
(
3.53417e-37
1.04991e-35
1.55708e-35
-3.24224e-35
-1.6889e-34
-1.72491e-34
6.46135e-34
2.46956e-33
1.68367e-33
-1.06141e-32
-3.34585e-32
-1.53354e-32
1.51475e-31
4.27147e-31
1.54333e-31
-1.91502e-30
-5.19059e-30
-2.08131e-30
2.14578e-29
6.00239e-29
3.4388e-29
-2.08863e-28
-6.51745e-28
-5.58719e-28
1.66617e-27
6.45993e-27
7.98498e-27
-9.0288e-27
-5.57419e-26
-9.61876e-26
-2.49429e-27
3.83394e-25
9.43217e-25
8.08782e-25
-1.62931e-24
-7.05547e-24
-1.14404e-23
-2.87269e-24
3.34536e-23
9.37392e-23
1.21392e-22
-7.29482e-24
-4.16281e-22
-1.03476e-21
-1.33184e-21
-2.27533e-22
3.42354e-21
9.49885e-21
1.47312e-20
1.15486e-20
-1.03458e-20
-5.79453e-20
-1.24794e-19
-1.80462e-19
-1.66398e-19
-5.08841e-21
3.75015e-19
1.00455e-18
1.84223e-18
2.76469e-18
3.5882e-18
4.11993e-18
4.22141e-18
3.85833e-18
3.11492e-18
2.16586e-18
1.21736e-18
4.42299e-19
-6.50066e-20
-2.99947e-19
-3.26361e-19
-2.3767e-19
-1.19201e-19
-2.53705e-20
2.44343e-20
3.62198e-20
2.68367e-20
1.21237e-20
1.2188e-21
-3.53682e-21
-3.79842e-21
-2.20663e-21
-6.19264e-22
2.77e-22
5.65384e-22
5.62883e-22
5.03357e-22
4.72424e-22
4.6891e-22
4.7305e-22
4.75225e-22
4.7523e-22
4.74872e-22
4.74786e-22
4.74824e-22
4.74842e-22
4.74839e-22
4.74837e-22
4.74837e-22
4.74837e-22
1.0499e-35
3.641e-35
-1.61184e-35
-2.64863e-34
-4.73108e-34
6.09644e-34
4.21102e-33
5.54427e-33
-1.27359e-32
-6.02475e-32
-5.9803e-32
2.07567e-31
7.91894e-31
6.26667e-31
-2.85732e-30
-9.70008e-30
-6.90306e-30
3.40423e-29
1.11486e-28
8.4209e-29
-3.49841e-28
-1.19819e-27
-1.09868e-27
2.99363e-27
1.18445e-26
1.40439e-26
-1.90488e-26
-1.0418e-25
-1.62804e-25
4.76311e-26
7.67318e-25
1.61596e-24
8.43087e-25
-4.12856e-24
-1.2927e-23
-1.5779e-23
8.26815e-24
7.46635e-23
1.5125e-22
1.16335e-22
-2.09765e-22
-8.76657e-22
-1.48067e-21
-9.62793e-22
1.99819e-21
7.63834e-21
1.31596e-20
1.16655e-20
-5.82357e-21
-4.39677e-20
-9.39729e-20
-1.27154e-19
-9.82576e-20
3.77601e-20
3.00091e-19
6.60964e-19
1.04482e-18
1.35502e-18
1.51873e-18
1.52612e-18
1.43865e-18
1.35698e-18
1.36364e-18
1.47331e-18
1.62095e-18
1.69616e-18
1.60411e-18
1.31783e-18
8.92767e-19
4.38457e-19
6.62622e-20
-1.56835e-19
-2.264e-19
-1.87369e-19
-1.03053e-19
-2.54718e-20
1.97507e-20
3.19191e-20
2.39502e-20
1.0262e-20
-2.43555e-22
-5.17355e-21
-6.0691e-21
-5.35221e-21
-4.59383e-21
-4.2659e-21
-4.24037e-21
-4.29554e-21
-4.32675e-21
-4.32928e-21
-4.32445e-21
-4.32244e-21
-4.32271e-21
-4.3231e-21
-4.32313e-21
-4.32308e-21
-4.32307e-21
-4.32307e-21
-4.32308e-21
-4.32308e-21
1.55706e-35
-1.61191e-35
-1.45603e-34
-2.14746e-34
4.5398e-34
2.35746e-33
2.42486e-33
-9.00301e-33
-3.4716e-32
-2.43507e-32
1.48205e-31
4.73934e-31
2.30066e-31
-2.12444e-30
-6.08828e-30
-2.37277e-30
2.69915e-29
7.4247e-29
3.14421e-29
-3.03951e-28
-8.59092e-28
-5.00907e-28
2.97643e-27
9.31402e-27
7.92672e-27
-2.40181e-26
-9.21691e-26
-1.11594e-25
1.35312e-25
7.96705e-25
1.33404e-24
-7.69627e-26
-5.55424e-24
-1.30693e-23
-1.00608e-23
2.5246e-23
9.88385e-23
1.49011e-22
1.13983e-23
-4.93723e-22
-1.25526e-21
-1.44508e-21
5.39736e-22
5.98385e-21
1.32301e-20
1.47302e-20
-2.71433e-21
-4.99587e-20
-1.18293e-19
-1.60032e-19
-8.45811e-20
2.08254e-19
7.48206e-19
1.38885e-18
1.73375e-18
1.16777e-18
-9.61582e-19
-5.04273e-18
-1.08968e-17
-1.76367e-17
-2.38127e-17
-2.78423e-17
-2.85717e-17
-2.57257e-17
-2.00321e-17
-1.29572e-17
-6.17177e-18
-9.86953e-19
2.00149e-18
2.94637e-18
2.5046e-18
1.47418e-18
4.87406e-19
-1.33732e-19
-3.5506e-19
-3.09183e-19
-1.63243e-19
-3.45431e-20
3.19047e-20
4.3481e-20
2.74917e-20
7.39355e-21
-5.79812e-21
-1.1165e-20
-1.19937e-20
-1.14172e-20
-1.09361e-20
-1.08027e-20
-1.08299e-20
-1.08647e-20
-1.08725e-20
-1.08691e-20
-1.08669e-20
-1.08669e-20
-1.08673e-20
-1.08673e-20
-1.08673e-20
-1.08673e-20
-1.08673e-20
-1.08673e-20
-3.24222e-35
-2.64865e-34
-2.14749e-34
1.20511e-33
3.97311e-33
1.27546e-33
-2.13114e-32
-5.4563e-32
4.95157e-33
3.27393e-31
6.99543e-31
-2.80484e-31
-4.49895e-30
-8.57147e-30
4.81002e-30
5.60776e-29
1.0221e-28
-5.36164e-29
-6.35475e-28
-1.19175e-27
3.42605e-28
6.47587e-27
1.33991e-26
1.32747e-27
-5.75583e-26
-1.40803e-25
-7.98598e-26
4.1538e-25
1.32145e-24
1.42873e-24
-1.94814e-24
-1.03679e-23
-1.73763e-23
-2.30055e-24
5.97696e-23
1.54384e-22
1.62258e-22
-1.48021e-22
-9.30022e-22
-1.80536e-21
-1.39868e-21
2.39942e-21
1.05169e-20
1.90541e-20
1.60761e-20
-1.62749e-20
-8.89501e-20
-1.81943e-19
-2.19677e-19
-6.93629e-20
4.09832e-19
1.25394e-18
2.24162e-18
2.77115e-18
1.86233e-18
-1.64208e-18
-8.67805e-18
-1.94758e-17
-3.31868e-17
-4.78262e-17
-6.06415e-17
-6.88414e-17
-7.04508e-17
-6.49694e-17
-5.35657e-17
-3.87204e-17
-2.34526e-17
-1.04289e-17
-1.28648e-18
3.61714e-18
5.00333e-18
4.17749e-18
2.47994e-18
8.90123e-19
-1.19582e-19
-5.08704e-19
-4.77608e-19
-2.75726e-19
-8.17651e-20
2.94722e-20
6.10235e-20
4.85771e-20
2.56715e-20
9.54424e-21
2.97574e-21
2.15856e-21
3.03879e-21
3.67511e-21
3.8126e-21
3.75333e-21
3.7061e-21
3.70077e-21
3.70717e-21
3.70955e-21
3.70903e-21
3.70861e-21
3.70863e-21
3.70869e-21
3.70869e-21
3.70868e-21
-1.68889e-34
-4.73108e-34
4.53971e-34
3.97309e-33
5.76072e-33
-1.2107e-32
-6.15742e-32
-6.17427e-32
2.29494e-31
8.64486e-31
5.86751e-31
-3.591e-30
-1.12217e-29
-5.27349e-30
4.86987e-29
1.36782e-28
5.27922e-29
-5.8228e-28
-1.57888e-27
-6.87011e-28
6.126e-27
1.72235e-26
1.05287e-26
-5.53659e-26
-1.74835e-25
-1.56443e-25
4.01796e-25
1.60136e-24
2.0342e-24
-1.8567e-24
-1.25637e-23
-2.21213e-23
-3.28451e-24
7.63736e-23
1.93024e-22
1.79792e-22
-2.60667e-22
-1.24982e-21
-2.10213e-21
-8.76108e-22
4.74152e-21
1.42205e-20
1.96486e-20
4.54086e-21
-4.69212e-20
-1.27022e-19
-1.77971e-19
-8.87832e-20
2.5204e-19
8.4012e-19
1.42337e-18
1.46092e-18
2.83806e-19
-2.52174e-18
-6.65416e-18
-1.08495e-17
-1.31291e-17
-1.1599e-17
-5.50405e-18
4.02822e-18
1.40793e-17
2.09957e-17
2.19826e-17
1.64341e-17
6.27955e-18
-4.86559e-18
-1.33034e-17
-1.67806e-17
-1.52025e-17
-1.02922e-17
-4.52351e-18
3.65416e-20
2.41819e-18
2.77683e-18
1.93477e-18
7.99421e-19
-3.50691e-20
-3.89459e-19
-3.76307e-19
-2.04713e-19
-3.68088e-20
6.03714e-20
9.19807e-20
8.99842e-20
8.07786e-20
7.54305e-20
7.4376e-20
7.49386e-20
7.54071e-20
7.54927e-20
7.54378e-20
7.54052e-20
7.54058e-20
7.54112e-20
7.54121e-20
7.54114e-20
7.54112e-20
7.54113e-20
7.54113e-20
7.54113e-20
-1.72488e-34
6.0965e-34
2.35745e-33
1.27543e-33
-1.2107e-32
-3.48842e-32
-3.20144e-33
2.04626e-31
4.77943e-31
-1.31842e-31
-3.07395e-30
-6.19796e-30
3.26942e-30
4.1851e-29
7.7636e-29
-4.75622e-29
-5.20609e-28
-9.51054e-28
4.74732e-28
5.9035e-27
1.1368e-26
-2.33378e-27
-6.00981e-26
-1.30065e-25
-2.71389e-26
5.29836e-25
1.37801e-24
9.41657e-25
-3.72198e-24
-1.29198e-23
-1.54932e-23
1.56433e-23
1.00223e-22
1.81457e-22
5.3409e-23
-5.59475e-22
-1.57098e-21
-1.81968e-21
1.13705e-21
9.20475e-21
1.89631e-20
1.62797e-20
-2.1792e-20
-1.07195e-19
-2.0107e-19
-1.77002e-19
1.57934e-19
9.22442e-19
1.89573e-18
2.25478e-18
5.89538e-19
-4.4953e-18
-1.30982e-17
-2.24379e-17
-2.58688e-17
-1.35792e-17
2.44358e-17
9.36819e-17
1.90603e-16
3.00628e-16
4.0062e-16
4.65625e-16
4.77538e-16
4.32006e-16
3.40358e-16
2.2558e-16
1.14112e-16
2.71126e-17
-2.52288e-17
-4.44727e-17
-4.039e-17
-2.5434e-17
-9.88977e-18
6.00935e-19
4.93952e-18
4.8493e-18
2.84476e-18
8.39543e-19
-3.18381e-19
-6.25874e-19
-4.53795e-19
-1.66182e-19
4.28904e-20
1.37367e-19
1.57604e-19
1.50985e-19
1.43297e-19
1.4062e-19
1.40796e-19
1.41345e-19
1.41516e-19
1.41477e-19
1.41439e-19
1.41437e-19
1.41442e-19
1.41443e-19
1.41442e-19
1.41442e-19
1.41442e-19
1.41442e-19
6.46133e-34
4.21103e-33
2.42489e-33
-2.13114e-32
-6.15744e-32
-3.20177e-33
3.66673e-31
8.24654e-31
-3.41836e-31
-5.53671e-30
-1.03226e-29
8.15969e-30
7.53002e-29
1.24098e-28
-1.24707e-28
-9.34855e-28
-1.46645e-27
1.44021e-27
1.06283e-26
1.71707e-26
-1.21442e-26
-1.09683e-25
-1.96311e-25
4.94785e-26
1.00145e-24
2.11742e-24
5.98555e-25
-7.64509e-24
-2.05558e-23
-1.72193e-23
4.21051e-23
1.68812e-22
2.41046e-22
-6.33561e-23
-1.0542e-21
-2.32651e-21
-1.88466e-21
3.57301e-21
1.52771e-20
2.56463e-20
1.30783e-20
-5.04233e-20
-1.67496e-19
-2.644e-19
-1.5918e-19
3.80667e-19
1.43046e-18
2.57826e-18
2.65847e-18
-1.21966e-19
-7.34889e-18
-1.88203e-17
-3.06875e-17
-3.42828e-17
-1.67401e-17
3.59588e-17
1.33911e-16
2.77769e-16
4.55063e-16
6.404e-16
8.0034e-16
9.01906e-16
9.22079e-16
8.54958e-16
7.13916e-16
5.27838e-16
3.3272e-16
1.61623e-16
3.64558e-17
-3.58038e-17
-6.17549e-17
-5.63736e-17
-3.64929e-17
-1.55086e-17
-8.27793e-19
5.85525e-18
6.48999e-18
4.21345e-18
1.5789e-18
-1.39616e-19
-7.77775e-19
-7.3244e-19
-4.62944e-19
-2.42519e-19
-1.42122e-19
-1.24317e-19
-1.34881e-19
-1.44193e-19
-1.46643e-19
-1.4595e-19
-1.45242e-19
-1.45129e-19
-1.45216e-19
-1.45255e-19
-1.4525e-19
-1.45243e-19
-1.45243e-19
-1.45244e-19
-1.45244e-19
-1.45244e-19
2.46954e-33
5.54427e-33
-9.00292e-33
-5.45628e-32
-6.17427e-32
2.04625e-31
8.24653e-31
5.70856e-31
-3.64501e-30
-1.13583e-29
-4.07003e-30
5.53768e-29
1.45548e-28
1.97556e-29
-7.42113e-28
-1.76518e-27
-8.18261e-29
8.88788e-27
2.04705e-26
2.18358e-27
-9.49782e-26
-2.26725e-25
-7.0147e-26
8.88859e-25
2.36103e-24
1.47374e-24
-6.93736e-24
-2.24204e-23
-2.28751e-23
3.94113e-23
1.85022e-22
2.77391e-22
-6.85075e-23
-1.22132e-21
-2.63477e-21
-1.78017e-21
5.21083e-21
1.86839e-20
2.68305e-20
1.68468e-21
-8.39105e-20
-2.07645e-19
-2.39281e-19
5.40335e-20
8.42185e-19
1.88811e-18
2.21593e-18
2.17258e-19
-5.36763e-18
-1.36218e-17
-1.97073e-17
-1.49394e-17
9.74174e-18
5.70211e-17
1.16052e-16
1.59874e-16
1.51771e-16
6.07587e-17
-1.19663e-16
-3.59566e-16
-5.96316e-16
-7.55561e-16
-7.81375e-16
-6.611e-16
-4.31983e-16
-1.65767e-16
6.10924e-17
1.96762e-16
2.29431e-16
1.83613e-16
1.02312e-16
2.59158e-17
-2.20196e-17
-3.77207e-17
-3.10056e-17
-1.576e-17
-2.52441e-18
4.31118e-18
5.35679e-18
3.39422e-18
9.73736e-19
-6.27162e-19
-1.27133e-18
-1.34592e-18
-1.24521e-18
-1.16703e-18
-1.14478e-18
-1.14938e-18
-1.1558e-18
-1.15753e-18
-1.15698e-18
-1.15651e-18
-1.15647e-18
-1.15654e-18
-1.15656e-18
-1.15655e-18
-1.15655e-18
-1.15655e-18
-1.15655e-18
-1.15655e-18
1.68364e-33
-1.27359e-32
-3.47159e-32
4.952e-33
2.29495e-31
4.77942e-31
-3.4184e-31
-3.64501e-30
-6.121e-30
7.61648e-30
5.24666e-29
7.516e-29
-1.23562e-28
-6.95288e-28
-9.14052e-28
1.62709e-27
8.54541e-27
1.12454e-26
-1.75952e-26
-9.7214e-26
-1.39259e-25
1.47074e-25
1.00964e-24
1.68207e-24
-6.95919e-25
-9.28439e-24
-1.89461e-23
-4.44017e-24
7.10229e-23
1.89293e-22
1.60729e-22
-3.84294e-22
-1.5768e-21
-2.32753e-21
4.0098e-22
9.80218e-21
2.26358e-20
2.01845e-20
-3.08536e-20
-1.47439e-19
-2.62131e-19
-1.60911e-19
4.58478e-19
1.67457e-18
2.79093e-18
1.9195e-18
-3.5272e-18
-1.46633e-17
-2.74124e-17
-2.92393e-17
-2.2441e-19
7.74988e-17
2.01239e-16
3.26098e-16
3.52955e-16
1.40688e-16
-4.50159e-16
-1.49114e-15
-2.92336e-15
-4.53257e-15
-5.98597e-15
-6.92795e-15
-7.10161e-15
-6.44498e-15
-5.11803e-15
-3.44683e-15
-1.80929e-15
-5.1213e-16
2.90796e-16
6.12467e-16
5.85709e-16
3.86584e-16
1.65121e-16
7.91545e-18
-6.32427e-17
-6.88905e-17
-4.35502e-17
-1.52112e-17
2.51687e-18
8.276e-18
6.69976e-18
2.91717e-18
-7.86073e-20
-1.53564e-18
-1.90353e-18
-1.8363e-18
-1.72544e-18
-1.68091e-18
-1.68062e-18
-1.68848e-18
-1.69143e-18
-1.69106e-18
-1.69047e-18
-1.69039e-18
-1.69046e-18
-1.69049e-18
-1.69048e-18
-1.69048e-18
-1.69048e-18
-1.69048e-18
-1.06141e-32
-6.02476e-32
-2.43509e-32
3.27393e-31
8.64486e-31
-1.31841e-31
-5.53671e-30
-1.13583e-29
7.61646e-30
8.2678e-29
1.39518e-28
-1.54931e-28
-1.11686e-27
-1.65178e-27
2.28012e-27
1.38303e-26
1.93815e-26
-2.66236e-26
-1.57585e-25
-2.27905e-25
2.41981e-25
1.63966e-24
2.64373e-24
-1.42239e-24
-1.5224e-23
-2.91287e-23
-1.82786e-24
1.20062e-22
2.90175e-22
1.91859e-22
-7.15203e-22
-2.46095e-21
-3.10631e-21
1.9047e-21
1.61599e-20
3.21124e-20
2.01476e-20
-6.33794e-20
-2.2417e-19
-3.37966e-19
-9.72655e-20
8.45346e-19
2.40864e-18
3.41834e-18
1.33755e-18
-6.66965e-18
-2.07179e-17
-3.397e-17
-3.00263e-17
1.3776e-17
1.13856e-16
2.5975e-16
3.92898e-16
3.97411e-16
1.14709e-16
-6.14191e-16
-1.88796e-15
-3.68672e-15
-5.84097e-15
-8.04527e-15
-9.91894e-15
-1.10985e-14
-1.13346e-14
-1.05627e-14
-8.92486e-15
-6.73417e-15
-4.39172e-15
-2.28191e-15
-6.79395e-16
3.03327e-16
7.14061e-16
7.12013e-16
4.95562e-16
2.35943e-16
3.84875e-17
-6.23001e-17
-8.24111e-17
-5.88258e-17
-2.53901e-17
-1.21266e-18
9.27944e-18
1.01199e-17
7.17904e-18
4.36891e-18
2.96844e-18
2.66614e-18
2.78417e-18
2.90986e-18
2.94759e-18
2.94008e-18
2.93035e-18
2.92845e-18
2.92955e-18
2.93013e-18
2.93007e-18
2.92997e-18
2.92997e-18
2.92998e-18
2.92998e-18
2.92998e-18
-3.34583e-32
-5.9803e-32
1.48204e-31
6.9954e-31
5.8675e-31
-3.07394e-30
-1.03226e-29
-4.07003e-30
5.24665e-29
1.39518e-28
5.7461e-30
-7.79594e-28
-1.76484e-27
3.55205e-28
1.03464e-26
2.12974e-26
-6.32227e-27
-1.23951e-25
-2.48183e-25
5.4457e-26
1.33836e-24
2.79036e-24
5.89638e-26
-1.28157e-23
-2.97588e-23
-1.13239e-23
1.04538e-22
2.91565e-22
2.36693e-22
-6.5738e-22
-2.50379e-21
-3.25956e-21
2.1146e-21
1.74965e-20
3.35322e-20
1.53476e-20
-8.41835e-20
-2.55318e-19
-3.21592e-19
8.82858e-20
1.27264e-18
2.78788e-18
2.74255e-18
-1.9079e-18
-1.28427e-17
-2.56709e-17
-2.60303e-17
7.51633e-18
8.83035e-17
1.95863e-16
2.54309e-16
1.39791e-16
-2.6237e-16
-9.56456e-16
-1.73654e-15
-2.16173e-15
-1.66718e-15
1.92841e-16
3.46266e-15
7.61548e-15
1.16256e-14
1.43017e-14
1.4754e-14
1.27776e-14
8.9556e-15
4.42526e-15
4.19802e-16
-2.18988e-15
-3.1478e-15
-2.77566e-15
-1.7133e-15
-5.97034e-16
1.6954e-16
4.78936e-16
4.4188e-16
2.5026e-16
6.2885e-17
-4.45957e-17
-7.04785e-17
-4.94052e-17
-1.72739e-17
5.93671e-18
1.63405e-17
1.83505e-17
1.73312e-17
1.62838e-17
1.59191e-17
1.59455e-17
1.60273e-17
1.6055e-17
1.60502e-17
1.60439e-17
1.6043e-17
1.60438e-17
1.60441e-17
1.6044e-17
1.6044e-17
1.6044e-17
1.6044e-17
1.6044e-17
-1.5335e-32
2.07568e-31
4.73933e-31
-2.80488e-31
-3.59101e-30
-6.19795e-30
8.15974e-30
5.53768e-29
7.516e-29
-1.54931e-28
-7.79594e-28
-8.78003e-28
2.3634e-27
1.01763e-26
1.03621e-26
-3.05188e-26
-1.24153e-25
-1.27846e-25
3.35262e-25
1.4139e-24
1.63574e-24
-3.02039e-24
-1.48358e-23
-2.07027e-23
1.94023e-23
1.3938e-22
2.4458e-22
-2.56327e-23
-1.10982e-21
-2.55495e-21
-1.56208e-21
6.60386e-21
2.22555e-20
2.83451e-20
-1.62423e-20
-1.4676e-19
-3.0138e-19
-2.12474e-19
5.4525e-19
2.09912e-18
3.38261e-18
1.45404e-18
-7.43697e-18
-2.34583e-17
-3.60853e-17
-1.9632e-17
5.84406e-17
2.0734e-16
3.64632e-16
3.57788e-16
-7.35267e-17
-1.14517e-15
-2.78309e-15
-4.34756e-15
-4.49456e-15
-1.35831e-15
6.86274e-15
2.1042e-14
4.0327e-14
6.18413e-14
8.11858e-14
9.36926e-14
9.60015e-14
8.73016e-14
6.96806e-14
4.74065e-14
2.54501e-14
7.88586e-15
-3.18595e-15
-7.8497e-15
-7.78944e-15
-5.30364e-15
-2.39457e-15
-2.57244e-16
7.64782e-16
9.03673e-16
6.00696e-16
2.30344e-16
-1.4228e-17
-1.02852e-16
-9.03248e-17
-4.35278e-17
-3.95866e-18
1.62542e-17
2.18441e-17
2.1215e-17
1.97438e-17
1.90977e-17
1.90675e-17
1.91712e-17
1.92151e-17
1.92117e-17
1.92036e-17
1.92022e-17
1.92032e-17
1.92035e-17
1.92034e-17
1.92034e-17
1.92034e-17
1.92034e-17
1.51475e-31
7.91894e-31
2.30066e-31
-4.49895e-30
-1.12217e-29
3.26942e-30
7.53002e-29
1.45548e-28
-1.23562e-28
-1.11686e-27
-1.76484e-27
2.36339e-27
1.50253e-26
2.06745e-26
-3.41958e-26
-1.85782e-25
-2.41477e-25
4.0095e-25
2.11984e-24
2.85004e-24
-3.7551e-24
-2.21669e-23
-3.3423e-23
2.46601e-23
2.07843e-22
3.7385e-22
-3.15426e-23
-1.66898e-21
-3.78917e-21
-2.07977e-21
1.03442e-20
3.27926e-20
3.8133e-20
-3.32212e-20
-2.21701e-19
-4.13702e-19
-2.10393e-19
9.34525e-19
3.00057e-18
4.22309e-18
5.60464e-19
-1.21437e-17
-3.18692e-17
-4.2179e-17
-1.01369e-17
9.77755e-17
2.75438e-16
4.25152e-16
3.32673e-16
-2.77523e-16
-1.57272e-15
-3.35506e-15
-4.82369e-15
-4.51196e-15
-5.2578e-16
8.9082e-15
2.47336e-14
4.64577e-14
7.19098e-14
9.75078e-14
1.18989e-13
1.32403e-13
1.35086e-13
1.26348e-13
1.07685e-13
8.24522e-14
5.50518e-14
2.98617e-14
1.01976e-14
-2.36184e-15
-8.0861e-15
-8.64586e-15
-6.32513e-15
-3.2213e-15
-7.17364e-16
6.51797e-16
1.00373e-15
7.6377e-16
3.56775e-16
4.14318e-17
-1.07591e-16
-1.30467e-16
-9.89885e-17
-6.47059e-17
-4.65503e-17
-4.21938e-17
-4.34858e-17
-4.50812e-17
-4.55991e-17
-4.55192e-17
-4.53942e-17
-4.53669e-17
-4.53804e-17
-4.53881e-17
-4.53874e-17
-4.53862e-17
-4.53862e-17
-4.53863e-17
-4.53863e-17
-4.53863e-17
4.27145e-31
6.26666e-31
-2.12444e-30
-8.57145e-30
-5.27348e-30
4.18509e-29
1.24098e-28
1.97555e-29
-6.95287e-28
-1.65178e-27
3.55205e-28
1.01763e-26
2.06745e-26
-9.85909e-27
-1.34076e-25
-2.48514e-25
1.43285e-25
1.60485e-24
2.90809e-24
-1.39366e-24
-1.74213e-23
-3.30908e-23
6.58827e-24
1.68913e-22
3.59278e-22
7.35995e-23
-1.4101e-21
-3.59745e-21
-2.41638e-21
9.30268e-21
3.16844e-20
3.73782e-20
-3.59614e-20
-2.2873e-19
-4.07728e-19
-1.27625e-19
1.16696e-18
3.24479e-18
3.75527e-18
-1.93249e-18
-1.70742e-17
-3.50474e-17
-3.10782e-17
3.24489e-17
1.72314e-16
3.24907e-16
3.01269e-16
-1.66386e-16
-1.22075e-15
-2.54977e-15
-3.12843e-15
-1.35555e-15
4.16092e-15
1.32674e-14
2.29926e-14
2.73046e-14
1.86677e-14
-8.68812e-15
-5.50395e-14
-1.12989e-13
-1.68516e-13
-2.0547e-13
-2.11828e-13
-1.84797e-13
-1.32201e-13
-6.93814e-14
-1.30967e-14
2.4626e-14
3.99484e-14
3.68403e-14
2.37079e-14
9.12241e-15
-1.29472e-15
-5.8248e-15
-5.71379e-15
-3.39955e-15
-9.85611e-16
4.68392e-16
8.7394e-16
6.46195e-16
2.45992e-16
-5.69532e-17
-1.99729e-16
-2.3209e-16
-2.21711e-16
-2.08619e-16
-2.0358e-16
-2.03657e-16
-2.04649e-16
-2.05029e-16
-2.04987e-16
-2.04908e-16
-2.04894e-16
-2.04904e-16
-2.04908e-16
-2.04907e-16
-2.04906e-16
-2.04906e-16
-2.04906e-16
-2.04906e-16
1.54329e-31
-2.85732e-30
-6.08827e-30
4.81007e-30
4.86988e-29
7.76359e-29
-1.24708e-28
-7.42114e-28
-9.14051e-28
2.28013e-27
1.03464e-26
1.03621e-26
-3.41958e-26
-1.34076e-25
-1.19802e-25
4.38968e-25
1.62877e-24
1.47675e-24
-4.84381e-24
-1.85349e-23
-1.92265e-23
4.45685e-23
1.95105e-22
2.49463e-22
-3.06927e-22
-1.84745e-21
-3.01869e-21
8.54433e-22
1.49362e-20
3.22041e-20
1.58904e-20
-9.20034e-20
-2.86168e-19
-3.37304e-19
2.72086e-19
1.93478e-18
3.75895e-18
2.29038e-18
-7.65008e-18
-2.70076e-17
-4.1418e-17
-1.37044e-17
1.00959e-16
2.98944e-16
4.41433e-16
2.06133e-16
-7.98072e-16
-2.64867e-15
-4.51897e-15
-4.23563e-15
1.3921e-15
1.48917e-14
3.50984e-14
5.38311e-14
5.43239e-14
1.36185e-14
-9.01635e-14
-2.67271e-13
-5.06708e-13
-7.72797e-13
-1.01144e-12
-1.16547e-12
-1.19384e-12
-1.08667e-12
-8.69464e-13
-5.94427e-13
-3.225e-13
-1.03897e-13
3.51417e-14
9.50908e-14
9.61919e-14
6.65212e-14
3.08266e-14
4.13352e-15
-8.97235e-15
-1.10937e-14
-7.56515e-15
-3.02756e-15
5.36046e-17
1.2271e-15
1.12617e-15
5.69412e-16
8.11776e-17
-1.746e-16
-2.48393e-16
-2.42339e-16
-2.24138e-16
-2.15781e-16
-2.15234e-16
-2.16514e-16
-2.17087e-16
-2.17056e-16
-2.16953e-16
-2.16934e-16
-2.16946e-16
-2.1695e-16
-2.16949e-16
-2.16949e-16
-2.16949e-16
-2.16949e-16
-1.91502e-30
-9.70008e-30
-2.37275e-30
5.60777e-29
1.36782e-28
-4.75625e-29
-9.34856e-28
-1.76518e-27
1.62709e-27
1.38303e-26
2.12974e-26
-3.05188e-26
-1.85783e-25
-2.48514e-25
4.38968e-25
2.29599e-24
2.89858e-24
-5.1514e-24
-2.62139e-23
-3.4279e-23
4.86647e-23
2.74629e-22
4.03921e-22
-3.29254e-22
-2.58403e-21
-4.54598e-21
6.33031e-22
2.08778e-20
4.63856e-20
2.35924e-20
-1.31051e-19
-4.04422e-19
-4.56478e-19
4.4292e-19
2.76162e-18
5.04419e-18
2.35341e-18
-1.19049e-17
-3.70826e-17
-5.09616e-17
-3.89579e-18
1.53495e-16
3.92495e-16
5.0704e-16
9.40088e-17
-1.24339e-15
-3.39916e-15
-5.14068e-15
-3.83879e-15
3.80537e-15
1.96555e-14
4.10368e-14
5.7972e-14
5.26391e-14
2.4852e-15
-1.13055e-13
-3.04182e-13
-5.63889e-13
-8.65654e-13
-1.16707e-12
-1.41859e-12
-1.57491e-12
-1.60578e-12
-1.50345e-12
-1.285e-12
-9.88725e-13
-6.65361e-13
-3.65989e-13
-1.30102e-13
2.26093e-14
9.41059e-14
1.03267e-13
7.6857e-14
3.99997e-14
9.64711e-15
-7.32416e-15
-1.19914e-14
-9.32984e-15
-4.46955e-15
-6.12304e-16
1.26034e-15
1.58921e-15
1.23275e-15
8.23447e-16
6.01987e-16
5.47042e-16
5.61822e-16
5.81143e-16
5.87579e-16
5.86677e-16
5.85156e-16
5.84813e-16
5.84974e-16
5.85068e-16
5.85061e-16
5.85046e-16
5.85046e-16
5.85047e-16
5.85048e-16
5.85048e-16
-5.19058e-30
-6.90305e-30
2.69915e-29
1.0221e-28
5.2792e-29
-5.20609e-28
-1.46645e-27
-8.18245e-29
8.54541e-27
1.93815e-26
-6.32227e-27
-1.24153e-25
-2.41477e-25
1.43285e-25
1.62876e-24
2.89857e-24
-1.99967e-24
-1.94588e-23
-3.39893e-23
1.96482e-23
2.1125e-22
3.88645e-22
-1.07297e-22
-2.05213e-21
-4.24621e-21
-6.35151e-22
1.72003e-20
4.27917e-20
2.70764e-20
-1.14409e-19
-3.79148e-19
-4.36103e-19
4.54958e-19
2.75284e-18
4.83142e-18
1.37237e-18
-1.41505e-17
-3.87588e-17
-4.4243e-17
2.43864e-17
2.05038e-16
4.17564e-16
3.66506e-16
-3.94103e-16
-2.05989e-15
-3.87077e-15
-3.58134e-15
1.98471e-15
1.45207e-14
3.03408e-14
3.73274e-14
1.65306e-14
-4.85989e-14
-1.56492e-13
-2.72487e-13
-3.2593e-13
-2.28386e-13
8.80522e-14
6.27057e-13
1.30246e-12
1.95046e-12
2.38222e-12
2.45702e-12
2.14205e-12
1.5287e-12
7.96289e-13
1.40703e-13
-2.97535e-13
-4.73746e-13
-4.34632e-13
-2.78783e-13
-1.06636e-13
1.60157e-14
6.91868e-14
6.76726e-14
4.0233e-14
1.1663e-14
-5.54786e-15
-1.03581e-14
-7.67044e-15
-2.93209e-15
6.62525e-16
2.36256e-15
2.75248e-15
2.63249e-15
2.4779e-15
2.41787e-15
2.41849e-15
2.43016e-15
2.43469e-15
2.43421e-15
2.43328e-15
2.43311e-15
2.43322e-15
2.43327e-15
2.43326e-15
2.43325e-15
2.43325e-15
2.43325e-15
2.43325e-15
-2.08128e-30
3.40423e-29
7.42469e-29
-5.36168e-29
-5.8228e-28
-9.51054e-28
1.44021e-27
8.88788e-27
1.12454e-26
-2.66236e-26
-1.23951e-25
-1.27846e-25
4.00951e-25
1.60485e-24
1.47675e-24
-5.1514e-24
-1.94588e-23
-1.80937e-23
5.67595e-23
2.2082e-22
2.33386e-22
-5.20139e-22
-2.31632e-21
-2.99973e-21
3.54767e-21
2.18443e-20
3.6008e-20
-9.31202e-21
-1.75769e-19
-3.81589e-19
-1.93343e-19
1.07574e-18
3.37107e-18
4.00204e-18
-3.12317e-18
-2.26586e-17
-4.42065e-17
-2.73062e-17
8.88137e-17
3.15567e-16
4.85563e-16
1.64926e-16
-1.17004e-15
-3.47954e-15
-5.15159e-15
-2.44135e-15
9.19705e-15
3.06765e-14
5.24405e-14
4.93542e-14
-1.54766e-14
-1.7129e-13
-4.04741e-13
-6.21651e-13
-6.29067e-13
-1.62932e-13
1.02815e-12
3.06166e-12
5.81083e-12
8.86548e-12
1.16042e-11
1.33709e-11
1.36946e-11
1.24626e-11
9.96826e-12
6.81092e-12
3.69018e-12
1.18232e-12
-4.11651e-13
-1.09744e-12
-1.1077e-12
-7.65029e-13
-3.53778e-13
-4.65456e-14
1.04084e-13
1.28195e-13
8.72859e-14
3.48428e-14
-7.2806e-16
-1.4247e-14
-1.30432e-14
-6.58063e-15
-9.20533e-16
2.04375e-15
2.89878e-15
2.82845e-15
2.61739e-15
2.52049e-15
2.51415e-15
2.529e-15
2.53565e-15
2.53529e-15
2.53409e-15
2.53387e-15
2.53401e-15
2.53406e-15
2.53405e-15
2.53404e-15
2.53404e-15
2.53404e-15
2.14579e-29
1.11486e-28
3.14418e-29
-6.35475e-28
-1.57888e-27
4.74736e-28
1.06283e-26
2.04705e-26
-1.75952e-26
-1.57585e-25
-2.48183e-25
3.35263e-25
2.11984e-24
2.90809e-24
-4.84381e-24
-2.62139e-23
-3.39893e-23
5.67595e-23
2.99182e-22
4.01558e-22
-5.31489e-22
-3.12949e-21
-4.71415e-21
3.49106e-21
2.9352e-20
5.27777e-20
-4.4842e-21
-2.35744e-19
-5.35289e-19
-2.94116e-19
1.4609e-18
4.63439e-18
5.39526e-18
-4.68103e-18
-3.13319e-17
-5.85401e-17
-2.99251e-17
1.31915e-16
4.24499e-16
5.9866e-16
8.22163e-17
-1.71552e-15
-4.51355e-15
-5.98887e-15
-1.47191e-15
1.38106e-14
3.90374e-14
6.04026e-14
4.7507e-14
-3.88838e-14
-2.22818e-13
-4.76576e-13
-6.86606e-13
-6.44201e-13
-7.90911e-14
1.26248e-12
3.51626e-12
6.61262e-12
1.02414e-11
1.38897e-11
1.6947e-11
1.88485e-11
1.92155e-11
1.79532e-11
1.52805e-11
1.16803e-11
7.78196e-12
4.20767e-12
1.42515e-12
-3.46204e-13
-1.14901e-12
-1.22281e-12
-8.91976e-13
-4.52796e-13
-9.97256e-14
9.26957e-14
1.41706e-13
1.07552e-13
5.01153e-14
5.73275e-15
-1.51875e-14
-1.83617e-14
-1.39109e-14
-9.08298e-15
-6.53093e-15
-5.92051e-15
-6.10327e-15
-6.32773e-15
-6.40041e-15
-6.3891e-15
-6.3715e-15
-6.36768e-15
-6.36959e-15
-6.37066e-15
-6.37057e-15
-6.3704e-15
-6.3704e-15
-6.37042e-15
-6.37042e-15
-6.37042e-15
6.0024e-29
8.42089e-29
-3.03952e-28
-1.19175e-27
-6.8701e-28
5.90351e-27
1.71708e-26
2.18357e-27
-9.7214e-26
-2.27905e-25
5.44571e-26
1.4139e-24
2.85004e-24
-1.39365e-24
-1.85349e-23
-3.4279e-23
1.96482e-23
2.2082e-22
4.01558e-22
-1.84632e-22
-2.38432e-21
-4.56964e-21
7.65217e-22
2.29487e-20
4.95028e-20
1.20345e-20
-1.89325e-19
-4.92911e-19
-3.51492e-19
1.22015e-18
4.29744e-18
5.26589e-18
-4.34601e-18
-3.04734e-17
-5.61571e-17
-2.19402e-17
1.49541e-16
4.35755e-16
5.32455e-16
-1.8425e-16
-2.19739e-15
-4.72713e-15
-4.56976e-15
3.37283e-15
2.18625e-14
4.34918e-14
4.42164e-14
-1.18661e-14
-1.47477e-13
-3.29711e-13
-4.3399e-13
-2.55113e-13
4.00888e-13
1.55277e-12
2.88111e-12
3.68515e-12
3.05757e-12
2.72333e-13
-4.7624e-12
-1.12294e-11
-1.75129e-11
-2.17265e-11
-2.24565e-11
-1.9373e-11
-1.33962e-11
-6.32482e-12
-1.0817e-13
3.88275e-12
5.25609e-12
4.53773e-12
2.75537e-12
9.24484e-13
-3.16811e-13
-8.06946e-13
-7.33605e-13
-4.12173e-13
-1.01632e-13
7.55768e-14
1.17789e-13
8.24949e-14
2.89836e-14
-9.73495e-15
-2.71949e-14
-3.06641e-14
-2.90307e-14
-2.73013e-14
-2.66882e-14
-2.6726e-14
-2.68602e-14
-2.69069e-14
-2.68993e-14
-2.68889e-14
-2.68874e-14
-2.68887e-14
-2.68892e-14
-2.68891e-14
-2.6889e-14
-2.6889e-14
-2.6889e-14
-2.6889e-14
3.43879e-29
-3.49842e-28
-8.59092e-28
3.42606e-28
6.126e-27
1.1368e-26
-1.21442e-26
-9.49783e-26
-1.39259e-25
2.41981e-25
1.33836e-24
1.63574e-24
-3.7551e-24
-1.74213e-23
-1.92265e-23
4.86648e-23
2.1125e-22
2.33386e-22
-5.31489e-22
-2.38432e-21
-2.91341e-21
4.70627e-21
2.47351e-20
3.59197e-20
-2.88186e-20
-2.29231e-19
-4.14365e-19
1.19519e-20
1.7949e-18
4.2387e-18
2.78415e-18
-1.04156e-17
-3.62094e-17
-4.72979e-17
2.31376e-17
2.33813e-16
4.88567e-16
3.6008e-16
-8.37268e-16
-3.32519e-15
-5.43645e-15
-2.52215e-15
1.13916e-14
3.67222e-14
5.71814e-14
3.27272e-14
-8.76363e-14
-3.19187e-13
-5.66864e-13
-5.65909e-13
8.42451e-14
1.71798e-12
4.22952e-12
6.65429e-12
6.96015e-12
2.32644e-12
-9.96753e-12
-3.12376e-11
-6.01942e-11
-9.25006e-11
-1.21534e-10
-1.40277e-10
-1.43689e-10
-1.30568e-10
-1.04069e-10
-7.06163e-11
-3.7682e-11
-1.13832e-11
5.13728e-12
1.20227e-11
1.18207e-11
7.99894e-12
3.57361e-12
3.39727e-13
-1.19408e-12
-1.38788e-12
-9.15349e-13
-3.46134e-13
2.72585e-14
1.60782e-13
1.39525e-13
6.64063e-14
5.02994e-15
-2.62128e-14
-3.48093e-14
-3.38077e-14
-3.15243e-14
-3.05262e-14
-3.04817e-14
-3.06429e-14
-3.07107e-14
-3.07053e-14
-3.06927e-14
-3.06905e-14
-3.0692e-14
-3.06926e-14
-3.06924e-14
-3.06924e-14
-3.06924e-14
-3.06924e-14
-2.08864e-28
-1.19819e-27
-5.00904e-28
6.47588e-27
1.72235e-26
-2.33381e-27
-1.09683e-25
-2.26725e-25
1.47074e-25
1.63966e-24
2.79036e-24
-3.02039e-24
-2.21669e-23
-3.30908e-23
4.45685e-23
2.74629e-22
3.88645e-22
-5.20139e-22
-3.12949e-21
-4.56964e-21
4.70627e-21
3.25504e-20
5.29545e-20
-2.71519e-20
-3.0192e-19
-5.82529e-19
-4.75944e-20
2.37593e-18
5.792e-18
3.91483e-18
-1.40795e-17
-4.90086e-17
-6.25102e-17
3.64064e-17
3.20705e-16
6.42586e-16
4.1262e-16
-1.24612e-15
-4.46597e-15
-6.7899e-15
-2.0743e-15
1.66993e-14
4.80818e-14
6.87811e-14
2.80057e-14
-1.31599e-13
-4.13606e-13
-6.82508e-13
-6.09954e-13
2.61017e-13
2.26609e-12
5.20386e-12
7.90498e-12
8.04e-12
2.40919e-12
-1.22048e-11
-3.78047e-11
-7.3992e-11
-1.17331e-10
-1.6163e-10
-1.99182e-10
-2.22657e-10
-2.27072e-10
-2.11214e-10
-1.78046e-10
-1.33949e-10
-8.70126e-11
-4.49202e-11
-1.30976e-11
6.29872e-12
1.43055e-11
1.41473e-11
9.78914e-12
4.62474e-12
7.2311e-13
-1.25316e-12
-1.635e-12
-1.15992e-12
-4.9683e-13
-2.04528e-14
1.84611e-13
1.99603e-13
1.40801e-13
8.51703e-14
5.75933e-14
5.17045e-14
5.40654e-14
5.65471e-14
5.72861e-14
5.71353e-14
5.69432e-14
5.69062e-14
5.69282e-14
5.69394e-14
5.69382e-14
5.69364e-14
5.69364e-14
5.69366e-14
5.69366e-14
5.69366e-14
-6.51746e-28
-1.09868e-27
2.97644e-27
1.33992e-26
1.05287e-26
-6.00982e-26
-1.96312e-25
-7.0147e-26
1.00964e-24
2.64373e-24
5.89649e-26
-1.48358e-23
-3.3423e-23
6.58825e-24
1.95105e-22
4.03921e-22
-1.07297e-22
-2.31632e-21
-4.71415e-21
7.65216e-22
2.47351e-20
5.29545e-20
5.13541e-21
-2.33037e-19
-5.61574e-19
-2.62043e-19
1.84866e-18
5.43404e-18
4.91388e-18
-1.09366e-17
-4.56352e-17
-6.41888e-17
2.58481e-17
3.06212e-16
6.32003e-16
3.87687e-16
-1.33554e-15
-4.56229e-15
-6.39762e-15
-1.4607e-16
2.05826e-14
5.03265e-14
5.79748e-14
-1.20808e-14
-2.01295e-13
-4.56206e-13
-5.48849e-13
-9.62252e-14
1.21898e-12
3.22706e-12
4.85299e-12
4.0902e-12
-1.27046e-12
-1.21595e-11
-2.66064e-11
-3.90633e-11
-4.16524e-11
-2.74224e-11
5.61162e-12
5.18035e-11
9.85129e-11
1.30435e-10
1.35927e-10
1.12273e-10
6.71105e-11
1.52112e-11
-2.77806e-11
-5.14917e-11
-5.39854e-11
-4.08728e-11
-2.14517e-11
-4.21354e-12
6.11857e-12
9.10916e-12
7.18241e-12
3.51924e-12
4.58212e-13
-1.07492e-12
-1.27171e-12
-7.91214e-13
-2.20512e-13
1.5232e-13
3.01041e-13
3.1769e-13
2.94087e-13
2.75928e-13
2.70792e-13
2.71876e-13
2.73367e-13
2.73767e-13
2.73639e-13
2.73529e-13
2.73521e-13
2.73537e-13
2.73541e-13
2.7354e-13
2.73539e-13
2.73539e-13
2.73539e-13
2.73539e-13
-5.58721e-28
2.99363e-27
9.31403e-27
1.32749e-27
-5.53659e-26
-1.30065e-25
4.94783e-26
8.88859e-25
1.68208e-24
-1.42239e-24
-1.28157e-23
-2.07027e-23
2.46601e-23
1.68914e-22
2.49463e-22
-3.29254e-22
-2.05213e-21
-2.99973e-21
3.49106e-21
2.29487e-20
3.59198e-20
-2.71519e-20
-2.33037e-19
-4.17499e-19
8.77676e-20
2.08231e-18
4.52316e-18
1.67025e-18
-1.53129e-17
-4.34963e-17
-4.11039e-17
7.68947e-17
3.48192e-16
5.43048e-16
-1.07211e-17
-2.05935e-15
-4.99541e-15
-4.8411e-15
5.71402e-15
3.08685e-14
5.71744e-14
3.97716e-14
-8.65832e-14
-3.43471e-13
-5.93677e-13
-4.50914e-13
6.27077e-13
2.90294e-12
5.60517e-12
6.25224e-12
8.33375e-13
-1.43502e-11
-3.90397e-11
-6.47386e-11
-7.23109e-11
-3.43293e-11
7.6432e-11
2.741e-10
5.47536e-10
8.55511e-10
1.13385e-09
1.31401e-09
1.34658e-09
1.21984e-09
9.64871e-10
6.44701e-10
3.3212e-10
8.59426e-11
-6.46793e-11