/*--------------------------------*- C++ -*----------------------------------*\
  =========                 |
  \\      /  F ield         | OpenFOAM: The Open Source CFD Toolbox
   \\    /   O peration     | Website:  https://openfoam.org
    \\  /    A nd           | Version:  13
     \\/     M anipulation  |
\*---------------------------------------------------------------------------*/
FoamFile
{
    format      ascii;
    class       volScalarField;
    location    "5.5";
    object      T;
}
// * * * * * * * * * * * * * * * * * * * * * * * * * * * * * * * * * * * * * //

dimensions      [0 0 0 1 0 0 0];

internalField   nonuniform List<scalar> 
10000
(
2.21205e-61
-1.19388e-61
1.19701e-60
-5.14565e-60
2.28357e-59
-9.55664e-59
3.78751e-58
-1.40759e-57
4.8417e-57
-1.50771e-56
4.0692e-56
-8.48757e-56
7.15399e-56
4.8558e-55
-3.60181e-54
1.56967e-53
-5.22558e-53
1.35784e-52
-2.46978e-52
1.20886e-52
1.24531e-51
-6.03181e-51
1.54996e-50
-1.84034e-50
-3.63889e-50
2.50866e-49
-6.111e-49
3.53561e-49
2.82651e-48
-1.05971e-47
1.20446e-47
3.37607e-47
-1.59748e-46
1.76378e-46
5.68003e-46
-2.25974e-45
1.10683e-45
1.1244e-44
-2.56629e-44
-2.452e-44
1.82024e-43
-9.83348e-44
-9.06871e-43
1.48562e-42
3.65746e-42
-1.09183e-41
-1.28378e-41
6.49195e-41
4.40258e-41
-3.51426e-40
-1.91173e-40
1.80429e-39
1.25195e-39
-8.74037e-39
-9.85959e-39
3.77697e-38
7.34372e-38
-1.23479e-37
-4.64198e-37
9.2887e-38
2.26597e-36
2.52312e-36
-6.64728e-36
-2.15177e-35
-6.73512e-36
8.07484e-35
1.82257e-34
3.24144e-35
-6.72793e-34
-1.63705e-33
-1.23103e-33
3.16815e-33
1.25701e-32
2.19001e-32
1.67386e-32
-2.42326e-32
-1.189e-31
-2.67188e-31
-4.41462e-31
-5.90898e-31
-6.61267e-31
-6.20995e-31
-4.78466e-31
-2.79634e-31
-8.67631e-32
4.93994e-32
1.08655e-31
1.02935e-31
6.28562e-32
1.94606e-32
-8.55874e-33
-1.75679e-32
-1.38336e-32
-6.02753e-33
-4.22007e-35
2.34416e-33
2.10677e-33
9.58012e-34
3.49087e-35
-2.86523e-34
-4.6544e-61
2.57275e-61
-2.55047e-60
1.10277e-59
-4.91821e-59
2.07143e-58
-8.27568e-58
3.10835e-57
-1.08518e-56
3.45695e-56
-9.71057e-56
2.22074e-55
-3.03942e-55
-5.22485e-55
6.10365e-54
-2.91784e-53
1.01566e-52
-2.72749e-52
5.17451e-52
-3.30396e-52
-2.28607e-51
1.1828e-50
-3.13786e-50
3.95698e-50
6.56663e-50
-4.94964e-49
1.24296e-48
-8.08546e-49
-5.48467e-48
2.13207e-47
-2.53724e-47
-6.51162e-47
3.21159e-46
-3.69671e-46
-1.11106e-45
4.56479e-45
-2.42685e-45
-2.23898e-44
5.23119e-44
4.72283e-44
-3.67051e-43
2.09098e-43
1.81805e-42
-3.03736e-42
-7.297e-42
2.2158e-41
2.54895e-41
-1.31391e-40
-8.71326e-41
7.1056e-40
3.80163e-40
-3.64716e-39
-2.51638e-39
1.76609e-38
1.99423e-38
-7.62049e-38
-1.48778e-37
2.47832e-37
9.39343e-37
-1.73148e-37
-4.56681e-36
-5.17362e-36
1.32292e-35
4.35502e-35
1.49009e-35
-1.60848e-34
-3.70048e-34
-8.17098e-35
1.32843e-33
3.30758e-33
2.63641e-33
-5.9769e-33
-2.4824e-32
-4.43747e-32
-3.67221e-32
3.98324e-32
2.20668e-31
5.06333e-31
8.43555e-31
1.13355e-30
1.27059e-30
1.19297e-30
9.16912e-31
5.31937e-31
1.59282e-31
-1.02482e-31
-2.14547e-31
-2.00752e-31
-1.21133e-31
-3.61704e-32
1.80532e-32
3.49335e-32
2.70727e-32
1.155e-32
-1.67252e-34
-4.73094e-33
-4.15895e-33
-1.85209e-33
-3.31777e-35
5.76702e-34
3.40941e-60
-1.88862e-60
1.87031e-59
-8.09065e-59
3.6097e-58
-1.52104e-57
6.0803e-57
-2.28544e-56
7.98686e-56
-2.548e-55
7.1748e-55
-1.64933e-54
2.30326e-54
3.58789e-54
-4.404e-53
2.12111e-52
-7.40846e-52
1.99441e-51
-3.7955e-51
2.46451e-51
1.65969e-50
-8.63341e-50
2.29616e-49
-2.90894e-49
-4.75883e-49
3.61463e-48
-9.09989e-48
5.97336e-48
3.99959e-47
-1.55962e-46
1.86321e-46
4.74559e-46
-2.34926e-45
2.71401e-45
8.1072e-45
-3.34072e-44
1.78903e-44
1.63642e-43
-3.83192e-43
-3.44031e-43
2.68601e-42
-1.53811e-42
-1.32965e-41
2.22596e-41
5.33388e-41
-1.62272e-40
-1.86203e-40
9.61981e-40
6.36129e-40
-5.20197e-39
-2.77614e-39
2.6701e-38
1.8398e-38
-1.293e-37
-1.45935e-37
5.57908e-37
1.08917e-36
-1.814e-36
-6.87729e-36
1.26225e-36
3.34292e-35
3.79113e-35
-9.67572e-35
-3.18883e-34
-1.09771e-34
1.17641e-33
2.71033e-33
6.07412e-34
-9.70861e-33
-2.42174e-32
-1.93921e-32
4.35075e-32
1.81414e-31
3.24996e-31
2.70692e-31
-2.85942e-31
-1.60345e-30
-3.68629e-30
-6.14602e-30
-8.26181e-30
-9.26195e-30
-8.69596e-30
-6.68221e-30
-3.87403e-30
-1.15622e-30
7.51994e-31
1.56773e-30
1.46534e-30
8.83259e-31
2.62882e-31
-1.32644e-31
-2.5542e-31
-1.97675e-31
-8.41791e-32
1.37842e-33
3.4634e-32
3.03902e-32
1.35094e-32
2.20346e-34
-4.22096e-33
-2.08412e-59
1.16413e-59
-1.1483e-58
4.97706e-58
-2.22415e-57
9.39141e-57
-3.76373e-56
1.41936e-55
-4.98256e-55
1.60017e-54
-4.5564e-54
1.07218e-53
-1.63131e-53
-1.47498e-53
2.4829e-52
-1.243e-51
4.41513e-51
-1.20269e-50
2.3219e-50
-1.62225e-50
-9.67378e-50
5.16182e-49
-1.38871e-48
1.79549e-48
2.75295e-48
-2.16606e-47
5.51354e-47
-3.76024e-47
-2.3817e-46
9.41369e-46
-1.14301e-45
-2.81906e-45
1.41769e-44
-1.66245e-44
-4.84196e-44
2.01969e-43
-1.11305e-43
-9.84022e-43
2.32465e-42
2.04159e-42
-1.62297e-41
9.47717e-42
8.01619e-41
-1.35223e-40
-3.20948e-40
9.8305e-40
1.11809e-39
-5.82181e-39
-3.8135e-39
3.1471e-38
1.66684e-38
-1.61528e-37
-1.10943e-37
7.82163e-37
8.82457e-37
-3.37359e-36
-6.59225e-36
1.09514e-35
4.16181e-35
-7.43229e-36
-2.02045e-34
-2.30433e-34
5.82297e-34
1.9301e-33
6.83694e-34
-7.08119e-33
-1.64238e-32
-3.92668e-33
5.82498e-32
1.46508e-31
1.19672e-31
-2.56492e-31
-1.08843e-30
-1.96826e-30
-1.68419e-30
1.5835e-30
9.38661e-30
2.17633e-29
3.64047e-29
4.90128e-29
5.49807e-29
5.16168e-29
3.96256e-29
2.29063e-29
6.73796e-30
-4.59193e-30
-9.40406e-30
-8.74896e-30
-5.24947e-30
-1.53999e-30
8.14541e-31
1.53616e-30
1.18181e-30
4.9922e-31
-1.23558e-32
-2.09426e-31
-1.82287e-31
-8.0396e-32
-7.40318e-34
2.54988e-32
1.24434e-58
-7.0069e-59
6.88512e-58
-2.9898e-57
1.33813e-56
-5.66113e-56
2.27414e-55
-8.60214e-55
3.03211e-54
-9.79616e-54
2.81694e-53
-6.7618e-53
1.09909e-52
4.80878e-53
-1.36687e-51
7.12835e-51
-2.57498e-50
7.09551e-50
-1.38876e-49
1.03485e-49
5.51601e-49
-3.02007e-48
8.21689e-48
-1.08315e-47
-1.55704e-47
1.27017e-46
-3.26828e-46
2.31032e-46
1.38784e-45
-5.55972e-45
6.85766e-45
1.63857e-44
-8.37135e-44
9.96094e-44
2.82966e-43
-1.19481e-42
6.76949e-43
5.79023e-42
-1.38e-41
-1.18517e-41
9.5964e-41
-5.71292e-41
-4.72922e-40
8.03903e-40
1.8897e-39
-5.82826e-39
-6.56876e-39
3.44812e-38
2.23632e-38
-1.86334e-37
-9.78877e-38
9.56343e-37
6.54442e-37
-4.63086e-36
-5.22094e-36
1.99673e-35
3.9044e-35
-6.4725e-35
-2.46478e-34
4.29056e-35
1.19524e-33
1.37038e-33
-3.43073e-33
-1.14336e-32
-4.15903e-33
4.17262e-32
9.74032e-32
2.46907e-32
-3.42138e-31
-8.67516e-31
-7.22181e-31
1.48008e-30
6.39266e-30
1.16674e-29
1.02429e-29
-8.52769e-30
-5.37615e-29
-1.25749e-28
-2.11057e-28
-2.84601e-28
-3.19459e-28
-2.99889e-28
-2.29997e-28
-1.32559e-28
-3.84084e-29
2.74367e-29
5.52188e-29
5.11331e-29
3.0539e-29
8.82714e-30
-4.89294e-30
-9.04352e-30
-6.91641e-30
-2.89795e-30
9.63669e-32
1.23947e-30
1.07031e-30
4.68349e-31
9.63718e-34
-1.5077e-31
-7.17974e-58
4.07726e-58
-3.99031e-57
1.73611e-56
-7.78232e-56
3.29887e-55
-1.32835e-54
5.03979e-54
-1.78363e-53
5.79622e-53
-1.68246e-52
4.11378e-52
-7.0751e-52
-4.44542e-53
7.21811e-51
-3.94508e-50
1.45128e-49
-4.04793e-49
8.03543e-49
-6.36771e-49
-3.03276e-48
1.70792e-47
-4.70234e-47
6.32296e-47
8.48033e-47
-7.20039e-46
1.87407e-45
-1.37366e-45
-7.814e-45
3.17583e-44
-3.98215e-44
-9.20001e-44
4.78113e-43
-5.77689e-43
-1.59814e-42
6.83755e-42
-3.98696e-42
-3.2946e-41
7.92676e-41
6.64367e-41
-5.489e-40
3.3352e-40
2.69849e-39
-4.62532e-39
-1.07591e-38
3.34354e-38
3.73071e-38
-1.97598e-37
-1.26737e-37
1.06743e-36
5.55552e-37
-5.47846e-36
-3.73258e-36
2.65289e-35
2.98773e-35
-1.14357e-34
-2.23719e-34
3.7018e-34
1.41237e-33
-2.39607e-34
-6.84151e-33
-7.8857e-33
1.95558e-32
6.55375e-32
2.44818e-32
-2.37868e-31
-5.58992e-31
-1.50044e-31
1.94377e-30
4.97064e-30
4.21928e-30
-8.24819e-30
-3.63148e-29
-6.69299e-29
-6.03214e-29
4.37381e-29
2.97054e-28
7.0168e-28
1.18209e-27
1.59675e-27
1.79358e-27
1.68355e-27
1.2898e-27
7.40948e-28
2.11081e-28
-1.58689e-28
-3.13576e-28
-2.8892e-28
-1.71694e-28
-4.88186e-29
2.8455e-29
5.1499e-29
3.91377e-29
1.62544e-29
-6.91771e-31
-7.09799e-30
-6.07791e-30
-2.63715e-30
1.50325e-32
8.62554e-31
3.99796e-57
-2.29067e-57
2.23235e-56
-9.73197e-56
4.36943e-55
-1.85586e-54
7.4908e-54
-2.85059e-53
1.01287e-52
-3.31019e-52
9.69501e-52
-2.41139e-51
4.35412e-51
-1.05958e-51
-3.64761e-50
2.10457e-49
-7.89598e-49
2.23062e-48
-4.49259e-48
3.77543e-48
1.60569e-47
-9.32573e-47
2.59993e-46
-3.56772e-46
-4.4405e-46
3.94171e-45
-1.0384e-44
7.89474e-45
4.24627e-44
-1.75273e-43
2.23571e-43
4.98397e-43
-2.63833e-42
3.23952e-42
8.71324e-42
-3.78124e-41
2.27155e-41
1.81078e-40
-4.40122e-40
-3.59181e-40
3.03403e-39
-1.88385e-39
-1.48767e-38
2.57298e-38
5.91718e-38
-1.85417e-37
-2.04606e-37
1.09453e-36
6.93294e-37
-5.91057e-36
-3.04343e-36
3.03356e-35
2.05601e-35
-1.46909e-34
-1.652e-34
6.33142e-34
1.2389e-33
-2.04685e-33
-7.82276e-33
1.29376e-33
3.78542e-32
4.38624e-32
-1.07747e-31
-3.6314e-31
-1.39287e-31
1.31062e-30
3.1013e-30
8.80203e-31
-1.06711e-29
-2.75324e-29
-2.38406e-29
4.43436e-29
1.99335e-28
3.71193e-28
3.43626e-28
-2.12449e-28
-1.58144e-27
-3.777e-27
-6.38915e-27
-8.64676e-27
-9.72009e-27
-9.12294e-27
-6.98107e-27
-3.99594e-27
-1.11686e-27
8.87593e-28
1.7205e-27
1.5767e-27
9.31887e-28
2.60185e-28
-1.60045e-28
-2.83398e-28
-2.13925e-28
-8.79993e-29
4.64109e-30
3.9292e-29
3.33475e-29
1.43381e-29
-2.02276e-31
-4.76987e-30
-2.14401e-56
1.24011e-56
-1.2031e-55
5.25592e-55
-2.36366e-54
1.00598e-53
-4.07026e-53
1.55359e-52
-5.54204e-52
1.82124e-51
-5.38022e-51
1.35969e-50
-2.56187e-50
1.2777e-50
1.75654e-49
-1.07988e-48
4.13899e-48
-1.18509e-47
2.42272e-47
-2.15391e-47
-8.16666e-47
4.90719e-46
-1.3863e-45
1.94243e-45
2.229e-45
-2.07984e-44
5.54988e-44
-4.37862e-44
-2.2227e-43
9.32909e-43
-1.21152e-42
-2.59977e-42
1.40414e-41
-1.7536e-41
-4.577e-41
2.01713e-40
-1.24999e-40
-9.59588e-40
2.35809e-39
1.86877e-39
-1.61779e-38
1.02791e-38
7.90989e-38
-1.38153e-37
-3.13773e-37
9.92256e-37
1.08152e-36
-5.85016e-36
-3.65351e-36
3.15797e-35
1.60609e-35
-1.62087e-34
-1.09168e-34
7.85062e-34
8.80994e-34
-3.38301e-33
-6.61903e-33
1.09237e-32
4.18086e-32
-6.7455e-33
-2.02117e-31
-2.35422e-31
5.72849e-31
1.94176e-30
7.6463e-31
-6.96763e-30
-1.66056e-29
-4.97697e-30
5.65128e-29
1.47176e-28
1.30068e-28
-2.29527e-28
-1.05543e-27
-1.98695e-27
-1.89047e-27
9.67647e-28
8.09339e-27
1.95724e-26
3.32604e-26
4.51075e-26
5.07496e-26
4.76268e-26
3.63979e-26
2.07508e-26
5.67548e-27
-4.79308e-27
-9.10453e-27
-8.29515e-27
-4.87375e-27
-1.33332e-27
8.69168e-28
1.50445e-27
1.12745e-27
4.5897e-28
-2.93504e-29
-2.09896e-28
-1.7647e-28
-7.51335e-29
1.74808e-30
2.54528e-29
1.10465e-55
-6.45475e-56
6.23182e-55
-2.72848e-54
1.22913e-53
-5.24218e-53
2.12627e-52
-8.14057e-52
2.91538e-51
-9.6328e-51
2.86938e-50
-7.36074e-50
1.4401e-49
-1.0303e-49
-8.01742e-49
5.31635e-48
-2.08573e-47
6.05746e-47
-1.25758e-46
1.18043e-46
3.97895e-46
-2.48299e-45
7.11389e-45
-1.01842e-44
-1.06892e-44
1.0555e-43
-2.85535e-43
2.33922e-43
1.11817e-42
-4.7791e-42
6.32464e-42
1.30271e-41
-7.19265e-41
9.14583e-41
2.31128e-40
-1.03593e-39
6.63163e-40
4.89279e-39
-1.2168e-38
-9.33352e-39
8.30492e-38
-5.40849e-38
-4.04788e-37
7.14657e-37
1.60092e-36
-5.11446e-36
-5.49793e-36
3.0114e-35
1.85047e-35
-1.62495e-34
-8.14583e-35
8.34093e-34
5.57542e-34
-4.04074e-33
-4.52214e-33
1.74121e-32
3.40503e-32
-5.61651e-32
-2.15192e-31
3.39152e-32
1.03942e-30
1.21691e-30
-2.93336e-30
-1.00006e-29
-4.04224e-30
3.5673e-29
8.56469e-29
2.70774e-29
-2.88147e-28
-7.57834e-28
-6.83913e-28
1.14127e-27
5.37981e-27
1.02463e-26
1.00264e-26
-4.06737e-27
-3.97111e-26
-9.74145e-26
-1.66394e-25
-2.26191e-25
-2.54722e-25
-2.3902e-25
-1.82403e-25
-1.03526e-25
-2.76183e-26
2.4943e-26
4.63757e-26
4.19871e-26
2.45092e-26
6.55268e-27
-4.54936e-27
-7.68939e-27
-5.71775e-27
-2.30116e-27
1.75745e-28
1.07997e-27
8.98925e-28
3.78669e-28
-1.26098e-29
-1.30812e-28
-5.4523e-55
3.22161e-55
-3.09387e-54
1.35781e-53
-6.12767e-53
2.61915e-52
-1.06506e-51
4.09031e-51
-1.47066e-50
4.88547e-50
-1.46704e-49
3.81688e-49
-7.72355e-49
6.96755e-49
3.44323e-48
-2.50389e-47
1.00782e-46
-2.97152e-46
6.26849e-46
-6.20192e-46
-1.85082e-45
1.20506e-44
-3.50488e-44
5.13045e-44
4.87581e-44
-5.13918e-43
1.41085e-42
-1.20121e-42
-5.39196e-42
2.35077e-41
-3.17381e-41
-6.25337e-41
3.53794e-40
-4.58588e-40
-1.11908e-39
5.1101e-39
-3.38525e-39
-2.3946e-38
6.03377e-38
4.46156e-38
-4.09515e-37
2.73875e-37
1.98913e-36
-3.55399e-36
-7.84027e-36
2.53352e-35
2.68106e-35
-1.4896e-34
-8.98377e-35
8.03456e-34
3.95983e-34
-4.1247e-33
-2.73199e-33
1.99881e-32
2.22895e-32
-8.614e-32
-1.68281e-31
2.77624e-31
1.06435e-30
-1.64206e-31
-5.13733e-30
-6.04447e-30
1.4436e-29
4.95017e-29
2.05331e-29
-1.75507e-28
-4.24596e-28
-1.41457e-28
1.4114e-27
3.75071e-27
3.45856e-27
-5.43694e-27
-2.63411e-26
-5.07938e-26
-5.11604e-26
1.53187e-26
1.86218e-25
4.64421e-25
7.97911e-25
1.08751e-24
1.22598e-24
1.15025e-24
8.76372e-25
4.94894e-25
1.28249e-25
-1.24825e-25
-2.26865e-25
-2.03986e-25
-1.1822e-25
-3.07893e-26
2.29019e-26
3.77548e-26
2.7838e-26
1.10631e-26
-9.98505e-28
-5.34041e-27
-4.3978e-27
-1.83116e-27
8.12421e-29
6.46081e-28
2.56912e-54
-1.53698e-54
1.46732e-53
-6.45632e-53
2.91928e-52
-1.25068e-51
5.09938e-51
-1.96467e-50
7.09236e-50
-2.36874e-49
7.16935e-49
-1.89054e-48
3.94401e-48
-4.20107e-48
-1.37686e-47
1.12426e-46
-4.65529e-46
1.39494e-45
-2.99207e-45
3.11629e-45
8.18501e-45
-5.59296e-44
1.65324e-43
-2.47676e-43
-2.10363e-43
2.39364e-42
-6.67666e-42
5.91448e-42
2.48442e-41
-1.10722e-40
1.52709e-40
2.86615e-40
-1.66648e-39
2.20518e-39
5.17932e-39
-2.4147e-38
1.65886e-38
1.12172e-37
-2.86778e-37
-2.03377e-37
1.93449e-36
-1.33165e-36
-9.36023e-36
1.69487e-35
3.67507e-35
-1.20307e-34
-1.25042e-34
7.06243e-34
4.16709e-34
-3.8077e-33
-1.83895e-33
1.95512e-32
1.28056e-32
-9.47836e-32
-1.05208e-31
4.08587e-31
7.96871e-31
-1.3161e-30
-5.04568e-30
7.6449e-31
2.43412e-29
2.8775e-29
-6.81103e-29
-2.34897e-28
-9.99592e-29
8.27667e-28
2.01816e-27
7.07919e-28
-6.62442e-27
-1.7798e-26
-1.67805e-26
2.47395e-26
1.23567e-25
2.4146e-25
2.50561e-25
-4.83137e-26
-8.31346e-25
-2.11403e-24
-3.6564e-24
-4.99839e-24
-5.64152e-24
-5.29223e-24
-4.02478e-24
-2.25976e-24
-5.65806e-25
5.99259e-25
1.06302e-24
9.48608e-25
5.45376e-25
1.37803e-25
-1.10616e-25
-1.7762e-25
-1.29767e-25
-5.08511e-26
5.386e-27
2.53164e-26
2.06094e-26
8.47261e-27
-4.80118e-28
-3.05886e-27
-1.15067e-53
6.98196e-54
-6.62072e-53
2.92158e-52
-1.32378e-51
5.68559e-51
-2.32475e-50
8.98679e-50
-3.25764e-49
1.09393e-48
-3.33689e-48
8.91377e-48
-1.91221e-47
2.31281e-47
5.04282e-47
-4.79194e-46
2.04813e-45
-6.24471e-45
1.36304e-44
-1.49312e-44
-3.42324e-44
2.47346e-43
-7.4412e-43
1.14223e-42
8.51887e-43
-1.06272e-41
3.01636e-41
-2.78422e-41
-1.08964e-40
4.97717e-40
-7.02399e-40
-1.24921e-39
7.49235e-39
-1.01393e-38
-2.28273e-38
1.08956e-37
-7.7822e-38
-5.01238e-37
1.30248e-36
8.80072e-37
-8.72679e-36
6.20065e-36
4.20418e-35
-7.72847e-35
-1.64323e-34
5.46015e-34
5.55742e-34
-3.19972e-33
-1.83942e-33
1.72435e-32
8.1258e-33
-8.85625e-32
-5.72106e-32
4.29593e-31
4.73975e-31
-1.85276e-30
-3.60436e-30
5.96668e-30
2.28571e-29
-3.41741e-30
-1.10235e-28
-1.30886e-28
3.07185e-28
1.06538e-27
4.64933e-28
-3.73029e-27
-9.17004e-27
-3.38421e-27
2.97029e-26
8.07372e-26
7.7892e-26
-1.07124e-25
-5.53672e-25
-1.09752e-24
-1.17463e-24
1.00374e-25
3.51631e-24
9.15225e-24
1.59531e-23
2.18834e-23
2.47327e-23
2.31974e-23
1.76048e-23
9.81877e-24
2.35829e-24
-2.75204e-24
-4.75622e-24
-4.20879e-24
-2.39799e-24
-5.84766e-25
5.11166e-25
7.98225e-25
5.77311e-25
2.22682e-25
-2.75663e-26
-1.14711e-25
-9.2229e-26
-3.7384e-26
2.63446e-27
1.38411e-26
4.87132e-53
-3.00527e-53
2.82733e-52
-1.25177e-51
5.68513e-51
-2.44851e-50
1.00425e-49
-3.89607e-49
1.41845e-48
-4.78991e-48
1.47258e-47
-3.98345e-47
8.76944e-47
-1.1742e-46
-1.64322e-46
1.92851e-45
-8.54355e-45
2.65451e-44
-5.90204e-44
6.7972e-44
1.34457e-43
-1.03769e-42
3.18279e-42
-5.01327e-42
-3.20225e-42
4.47804e-41
-1.29578e-40
1.24876e-40
4.52742e-40
-2.12674e-39
3.07739e-39
5.15112e-39
-3.20241e-38
4.44211e-38
9.53631e-38
-4.67642e-37
3.48401e-37
2.12768e-36
-5.63222e-36
-3.59402e-36
3.74517e-35
-2.75634e-35
-1.79525e-34
3.35796e-34
6.97945e-34
-2.35994e-33
-2.34316e-33
1.38027e-32
7.68821e-33
-7.43486e-32
-3.399e-32
3.81992e-31
2.42528e-31
-1.85436e-30
-2.02995e-30
8.00367e-30
1.55137e-29
-2.57825e-29
-9.85848e-29
1.4646e-29
4.75481e-28
5.66744e-28
-1.31981e-27
-4.60213e-27
-2.05848e-27
1.60112e-26
3.96906e-26
1.54016e-26
-1.26777e-25
-3.48896e-25
-3.44744e-25
4.39401e-25
2.361e-24
4.75347e-24
5.25405e-24
1.2195e-25
-1.40025e-23
-3.75018e-23
-6.59733e-23
-9.08622e-23
-1.02856e-22
-9.64513e-23
-7.30193e-23
-4.04071e-23
-9.21635e-24
1.2049e-23
2.02438e-23
1.77459e-23
1.00073e-23
2.33876e-24
-2.25239e-24
-3.41411e-24
-2.44174e-24
-9.25052e-25
1.33658e-25
4.95038e-25
3.92663e-25
1.56667e-25
-1.34955e-26
-5.96447e-26
-1.93462e-52
1.21791e-52
-1.13484e-51
5.04418e-51
-2.29711e-50
9.92466e-50
-4.0847e-49
1.59096e-48
-5.81939e-48
1.97672e-47
-6.12597e-47
1.67786e-46
-3.78487e-46
5.514e-46
4.47426e-46
-7.27699e-45
3.35943e-44
-1.06564e-43
2.41666e-43
-2.9266e-43
-4.91182e-43
4.10641e-42
-1.28705e-41
2.08422e-41
1.09787e-41
-1.78101e-40
5.26694e-40
-5.31375e-40
-1.77111e-39
8.59507e-39
-1.27862e-38
-1.99607e-38
1.29484e-37
-1.84635e-37
-3.75358e-37
1.90009e-36
-1.48274e-36
-8.53504e-36
2.3084e-35
1.37412e-35
-1.5218e-34
1.1653e-34
7.25217e-34
-1.38431e-33
-2.80131e-33
9.6709e-33
9.31849e-33
-5.64381e-32
-3.02285e-32
3.03852e-31
1.33693e-31
-1.56193e-30
-9.69999e-31
7.5901e-30
8.22351e-30
-3.27978e-29
-6.32453e-29
1.05753e-28
4.03035e-28
-6.00874e-29
-1.94488e-27
-2.32545e-27
5.37929e-27
1.88513e-26
8.63571e-27
-6.51679e-26
-1.6294e-25
-6.6449e-26
5.12821e-25
1.43014e-24
1.44887e-24
-1.69753e-24
-9.53868e-24
-1.95347e-23
-2.23353e-23
-2.99004e-24
5.20501e-23
1.44535e-22
2.57119e-22
3.55823e-22
4.0355e-22
3.7833e-22
2.85587e-22
1.56553e-22
3.34107e-23
-5.00846e-23
-8.15882e-23
-7.07594e-23
-3.94297e-23
-8.74591e-24
9.42504e-24
1.38354e-23
9.77141e-24
3.62573e-24
-6.12336e-25
-2.0259e-24
-1.58317e-24
-6.2046e-25
6.46498e-26
2.43707e-25
7.13039e-52
-4.60656e-52
4.24013e-51
-1.89393e-50
8.65328e-50
-3.7528e-49
1.55081e-48
-6.06765e-48
2.23105e-47
-7.6269e-47
2.38363e-46
-6.61132e-46
1.5267e-45
-2.39102e-45
-8.32869e-46
2.55005e-44
-1.23561e-43
4.01129e-43
-9.29468e-43
1.18477e-42
1.64483e-42
-1.52134e-41
4.88742e-41
-8.15849e-41
-3.32568e-41
6.63728e-40
-2.01273e-39
2.13383e-39
6.46922e-39
-3.26407e-38
5.01002e-38
7.2017e-38
-4.92092e-37
7.24145e-37
1.38085e-36
-7.26371e-36
5.97013e-36
3.21359e-35
-8.91636e-35
-4.86258e-35
5.8194e-34
-4.66377e-34
-2.75382e-33
5.3858e-33
1.05523e-32
-3.73667e-32
-3.46875e-32
2.17511e-31
1.10799e-31
-1.1704e-30
-4.899e-31
6.02052e-30
3.63236e-30
-2.92973e-29
-3.13077e-29
1.26811e-28
2.42759e-28
-4.09668e-28
-1.55297e-27
2.35637e-28
7.50293e-27
8.98938e-27
-2.06901e-26
-7.2822e-26
-3.41273e-26
2.50164e-25
6.31008e-25
2.70347e-25
-1.95511e-24
-5.53073e-24
-5.75253e-24
6.13029e-24
3.63057e-23
7.57723e-23
8.98027e-23
2.22284e-23
-1.78386e-22
-5.19574e-22
-9.37274e-22
-1.30474e-21
-1.48313e-21
-1.39004e-21
-1.04557e-21
-5.66511e-22
-1.10504e-22
1.96644e-22
3.09537e-22
2.65149e-22
1.45679e-22
3.02357e-23
-3.72619e-23
-5.2819e-23
-3.67735e-23
-1.33143e-23
2.64083e-24
7.8193e-24
6.00981e-24
2.30725e-24
-2.89334e-25
-9.39009e-25
-2.3984e-51
1.60547e-51
-1.4534e-50
6.5345e-50
-2.99827e-49
1.30657e-48
-5.42653e-48
2.13483e-47
-7.89819e-47
2.71973e-46
-8.57894e-46
2.41114e-45
-5.6985e-45
9.51623e-45
-3.00739e-46
-8.18393e-44
4.20492e-43
-1.40182e-42
3.32717e-42
-4.47407e-42
-4.92949e-42
5.22142e-41
-1.72694e-40
2.98284e-40
8.29015e-41
-2.29438e-39
7.16912e-39
-8.03042e-39
-2.18016e-38
1.15455e-37
-1.83776e-37
-2.38646e-37
1.7426e-36
-2.661e-36
-4.69352e-36
2.59116e-35
-2.26042e-35
-1.12517e-34
3.22136e-34
1.5641e-34
-2.07738e-33
1.75657e-33
9.74509e-33
-1.96385e-32
-3.69575e-32
1.35141e-31
1.19562e-31
-7.84269e-31
-3.73601e-31
4.21761e-30
1.64954e-30
-2.17161e-29
-1.25992e-29
1.05879e-28
1.11031e-28
-4.59422e-28
-8.70411e-28
1.48903e-27
5.59803e-27
-8.8189e-28
-2.71052e-26
-3.24868e-26
7.45914e-26
2.63391e-25
1.26062e-25
-8.99401e-25
-2.2889e-24
-1.03003e-24
6.97471e-24
2.00387e-23
2.14341e-23
-2.04811e-23
-1.29224e-22
-2.75516e-22
-3.39387e-22
-1.24094e-22
5.52737e-22
1.7215e-21
3.1624e-21
4.43535e-21
5.05634e-21
4.73718e-21
3.5473e-21
1.89337e-21
3.23995e-22
-7.24407e-22
-1.09694e-21
-9.25935e-22
-5.00054e-22
-9.49653e-23
1.38269e-22
1.88546e-22
1.29097e-22
4.53703e-23
-1.06658e-23
-2.82608e-23
-2.13151e-23
-7.9867e-24
1.20571e-24
3.38734e-24
7.14906e-51
-5.05054e-51
4.46018e-50
-2.02474e-49
9.34656e-49
-4.10042e-48
1.71473e-47
-6.79488e-47
2.53375e-46
-8.80332e-46
2.8072e-45
-8.00657e-45
1.9384e-44
-3.43564e-44
1.22763e-44
2.3525e-43
-1.30236e-42
4.48147e-42
-1.09376e-41
1.55838e-41
1.2619e-41
-1.63405e-40
5.60238e-40
-1.00713e-39
-1.32533e-40
7.24669e-39
-2.35084e-38
2.80556e-38
6.65375e-38
-3.75575e-37
6.24731e-37
7.10392e-37
-5.67885e-36
9.07316e-36
1.44809e-35
-8.52556e-35
7.98302e-35
3.614e-34
-1.07729e-33
-4.42797e-34
6.844e-33
-6.17795e-33
-3.1744e-32
6.64822e-32
1.18708e-31
-4.52916e-31
-3.75375e-31
2.6186e-30
1.13421e-30
-1.40731e-29
-4.98955e-30
7.25617e-29
3.98221e-29
-3.54745e-28
-3.62184e-28
1.54488e-27
2.88306e-27
-5.03394e-27
-1.86852e-26
3.14425e-27
9.0809e-26
1.08587e-25
-2.49768e-25
-8.83232e-25
-4.3054e-25
2.99971e-24
7.70185e-24
3.64033e-24
-2.30547e-23
-6.73744e-23
-7.42805e-23
6.23486e-23
4.25773e-22
9.30429e-22
1.1957e-21
5.86539e-22
-1.4945e-21
-5.16145e-21
-9.72329e-21
-1.37751e-20
-1.57638e-20
-1.47614e-20
-1.09879e-20
-5.74612e-21
-7.925e-22
2.48143e-21
3.5921e-21
2.97796e-21
1.57354e-21
2.62927e-22
-4.77314e-22
-6.2285e-22
-4.18001e-22
-1.41484e-22
4.00509e-23
9.47165e-23
6.98851e-23
2.54224e-23
-4.65076e-24
-1.13282e-23
-1.77305e-50
1.38025e-50
-1.16753e-49
5.38966e-49
-2.51314e-48
1.11464e-47
-4.71184e-47
1.88781e-46
-7.12093e-46
2.50515e-45
-8.1036e-45
2.35349e-44
-5.85503e-44
1.10112e-43
-7.20048e-44
-5.81419e-43
3.5697e-42
-1.27912e-41
3.23193e-41
-4.92078e-41
-2.44331e-41
4.54043e-40
-1.63336e-39
3.08649e-39
-1.32847e-40
-2.03972e-38
6.96089e-38
-8.97449e-38
-1.77936e-37
1.10138e-36
-1.93892e-36
-1.82165e-36
1.67029e-35
-2.83012e-35
-3.93178e-35
2.54149e-34
-2.60013e-34
-1.04197e-33
3.28345e-33
1.02715e-33
-2.04507e-32
2.00711e-32
9.33733e-32
-2.06103e-31
-3.42065e-31
1.38599e-30
1.04381e-30
-7.97442e-30
-2.97736e-30
4.28256e-29
1.2984e-29
-2.21269e-28
-1.11536e-28
1.08611e-27
1.06525e-27
-4.75612e-27
-8.67513e-27
1.56328e-26
5.68772e-26
-1.06536e-26
-2.78154e-25
-3.30326e-25
7.66694e-25
2.70653e-24
1.33738e-24
-9.15382e-24
-2.37028e-23
-1.17694e-23
6.9605e-23
2.07321e-22
2.36366e-22
-1.68739e-22
-1.27935e-21
-2.87939e-21
-3.88172e-21
-2.43058e-21
3.25311e-21
1.35632e-20
2.65508e-20
3.81706e-20
4.39208e-20
4.10988e-20
3.03308e-20
1.53862e-20
1.34177e-21
-7.80238e-21
-1.0696e-20
-8.66291e-21
-4.44448e-21
-6.02178e-22
1.51349e-21
1.87517e-21
1.22708e-21
3.94906e-22
-1.3838e-22
-2.90195e-22
-2.08487e-22
-7.30248e-23
1.64495e-23
3.46202e-23
2.99474e-50
-2.99172e-50
2.28836e-49
-1.09975e-48
5.246e-48
-2.3825e-47
1.02991e-46
-4.21706e-46
1.62529e-45
-5.84467e-45
1.9355e-44
-5.77588e-44
1.4903e-43
-2.99901e-43
2.86566e-43
1.12199e-42
-8.17862e-42
3.10985e-41
-8.25074e-41
1.36724e-40
1.75778e-41
-1.06218e-39
4.11445e-39
-8.3353e-39
2.27103e-39
4.87356e-38
-1.79846e-37
2.57124e-37
3.87891e-37
-2.80925e-36
5.36147e-36
3.62926e-36
-4.28339e-35
7.89386e-35
8.79461e-35
-6.65598e-34
7.67768e-34
2.59035e-33
-8.89013e-33
-1.52514e-33
5.38015e-32
-5.92691e-32
-2.39734e-31
5.72509e-31
8.48803e-31
-3.78097e-30
-2.42748e-30
2.16055e-29
6.12562e-30
-1.15929e-28
-2.60615e-29
6.00981e-28
2.61466e-28
-2.9688e-27
-2.72576e-27
1.31171e-26
2.30502e-26
-4.37463e-26
-1.54001e-25
3.41728e-26
7.6142e-25
8.90278e-25
-2.11383e-24
-7.40477e-24
-3.67525e-24
2.50036e-23
6.52238e-23
3.40404e-23
-1.87586e-22
-5.71136e-22
-6.7689e-22
3.87624e-22
3.42181e-21
7.995e-21
1.14083e-20
8.89881e-21
-4.22077e-21
-2.91829e-20
-6.12449e-20
-9.02482e-20
-1.04777e-19
-9.79303e-20
-7.12555e-20
-3.42838e-20
1.64615e-22
2.20694e-20
2.81962e-20
2.2098e-20
1.08473e-20
9.36772e-22
-4.32169e-21
-5.01782e-21
-3.17278e-21
-9.4727e-22
4.3299e-22
7.94367e-22
5.51346e-22
1.83215e-22
-5.25495e-23
-9.4472e-23
9.29349e-51
3.50849e-50
-1.41158e-49
9.27698e-49
-5.06991e-48
2.59901e-47
-1.2407e-46
5.53108e-46
-2.2974e-45
8.84285e-45
-3.12303e-44
9.9447e-44
-2.76207e-43
6.1942e-43
-8.41986e-43
-1.12483e-42
1.32889e-41
-5.70344e-41
1.65696e-40
-3.14151e-40
1.22769e-40
1.80621e-39
-8.16292e-39
1.86593e-38
-1.18371e-38
-8.70017e-38
3.75969e-37
-6.33597e-37
-5.39182e-37
5.75125e-36
-1.26072e-35
-3.44604e-36
8.87468e-35
-1.88714e-34
-1.3131e-34
1.43572e-33
-1.99667e-33
-5.04725e-33
2.03462e-32
-1.32368e-33
-1.17201e-31
1.54866e-31
4.98818e-31
-1.36935e-30
-1.64429e-30
8.7873e-30
3.99634e-30
-4.96567e-29
-6.33926e-30
2.66141e-28
2.31332e-29
-1.38818e-27
-4.34593e-28
6.93675e-27
5.60032e-27
-3.11473e-26
-5.10668e-26
1.06672e-25
3.53557e-25
-1.03064e-25
-1.78563e-24
-2.01553e-24
5.04755e-24
1.7317e-23
8.45161e-24
-5.87368e-23
-1.53885e-22
-8.45109e-23
4.32504e-22
1.35279e-21
1.68332e-21
-6.74067e-22
-7.78229e-21
-1.91718e-20
-2.94523e-20
-2.85381e-20
-6.07195e-21
4.13491e-20
1.04618e-19
1.63042e-19
1.9296e-19
1.79901e-19
1.26922e-19
5.36764e-20
-1.34619e-20
-5.41726e-20
-6.24403e-20
-4.63411e-20
-2.09767e-20
2.00457e-22
1.07302e-20
1.13755e-20
6.8147e-21
1.77508e-21
-1.19455e-21
-1.86172e-21
-1.22842e-21
-3.74678e-22
1.47729e-22
2.20458e-22
-3.52225e-49
8.87697e-50
-1.43452e-48
5.42158e-48
-2.20776e-47
8.2907e-47
-2.9013e-46
9.27089e-46
-2.62401e-45
6.1532e-45
-9.61439e-45
-4.7396e-45
1.11777e-43
-5.23022e-43
1.56397e-42
-2.70089e-42
-2.24465e-42
3.92637e-41
-1.76307e-40
4.94539e-40
-7.64099e-40
-6.74703e-40
8.68185e-39
-2.88445e-38
4.36686e-38
5.27519e-38
-4.89432e-37
1.22046e-36
-4.10812e-37
-7.05096e-36
2.24015e-35
-1.27274e-35
-1.1386e-34
3.49179e-34
-4.79142e-35
-2.09018e-33
4.31296e-33
5.12917e-33
-3.45544e-32
2.1134e-32
1.76098e-31
-3.39655e-31
-6.52691e-31
2.57047e-30
1.61587e-30
-1.55418e-29
-5.58212e-31
8.57157e-29
-2.03016e-29
-4.5852e-28
1.09932e-28
2.42769e-27
6.48842e-29
-1.24639e-26
-6.89843e-27
5.80735e-26
8.00877e-26
-2.10884e-25
-6.08761e-25
2.88565e-25
3.2418e-24
3.31416e-24
-9.62753e-24
-3.11384e-23
-1.39067e-23
1.08121e-22
2.81603e-22
1.63194e-22
-7.70657e-22
-2.5059e-21
-3.35865e-21
4.98191e-22
1.34311e-20
3.63935e-20
6.27709e-20
7.79503e-20
6.53364e-20
1.70603e-20
-5.718e-20
-1.30501e-19
-1.70606e-19
-1.57099e-19
-9.35873e-20
-6.51072e-21
6.88792e-20
1.0654e-19
1.00868e-19
6.55997e-20
2.3051e-20
-8.40095e-21
-2.145e-20
-1.93232e-20
-1.02802e-20
-1.74309e-21
2.75538e-21
3.37146e-21
2.01651e-21
5.00852e-22
-3.46895e-22
-3.96223e-22
1.83203e-48
-7.83126e-49
9.00236e-48
-3.74304e-47
1.63662e-46
-6.7519e-46
2.65261e-45
-9.85259e-45
3.4346e-44
-1.11184e-43
3.28884e-43
-8.6479e-43
1.91071e-42
-3.01517e-42
5.35281e-43
1.89279e-41
-8.78913e-41
2.47279e-40
-4.28159e-40
4.9766e-41
2.66967e-39
-1.03102e-38
1.96134e-38
-9.30874e-40
-1.23151e-37
3.98429e-37
-4.36382e-37
-1.22736e-36
6.12419e-36
-8.61112e-36
-1.5888e-35
8.99633e-35
-1.05594e-34
-3.15465e-34
1.24691e-33
-4.32086e-34
-6.54038e-33
1.27486e-32
1.92847e-32
-9.76913e-32
5.02164e-33
5.42323e-31
-5.1656e-31
-2.59245e-30
4.47159e-30
1.17968e-29
-2.83971e-29
-5.60203e-29
1.55809e-28
2.96756e-28
-7.60269e-28
-1.74161e-27
3.1291e-27
1.04853e-26
-8.40585e-27
-5.84992e-26
-1.44137e-26
2.66452e-25
3.90942e-25
-7.31608e-25
-2.89776e-24
-1.27784e-24
1.0958e-23
2.61735e-23
3.6813e-24
-1.06628e-22
-2.56615e-22
-1.5939e-22
6.74322e-22
2.44555e-21
4.05811e-21
2.02238e-21
-9.84538e-21
-3.91144e-20
-9.17987e-20
-1.68884e-19
-2.6408e-19
-3.64155e-19
-4.51955e-19
-5.10893e-19
-5.29185e-19
-5.02587e-19
-4.3525e-19
-3.38765e-19
-2.29741e-19
-1.26132e-19
-4.29936e-20
1.1125e-20
3.57816e-20
3.75031e-20
2.64206e-20
1.22556e-20
1.40708e-21
-3.89793e-21
-4.59883e-21
-2.96431e-21
-1.0158e-21
2.02553e-22
5.90544e-22
3.37783e-22
-6.38369e-48
3.18767e-48
-3.35791e-47
1.43706e-46
-6.40798e-46
2.70656e-45
-1.09102e-44
4.17106e-44
-1.50274e-43
5.05627e-43
-1.56792e-42
4.38524e-42
-1.06224e-41
2.01895e-41
-1.92563e-41
-5.78521e-41
4.09157e-40
-1.42411e-39
3.30681e-39
-4.01822e-39
-6.25627e-39
5.13563e-38
-1.51419e-37
2.11105e-37
2.46499e-37
-2.17457e-36
5.39882e-36
-2.91118e-36
-2.49759e-35
8.76545e-35
-8.11509e-35
-3.23055e-34
1.25659e-33
-9.29428e-34
-5.37577e-33
1.61013e-32
8.73186e-34
-9.30139e-32
1.43836e-31
3.07136e-31
-1.20487e-30
-2.21791e-31
6.75727e-30
-5.23661e-30
-3.15104e-29
4.93604e-29
1.35555e-28
-3.13275e-28
-5.89941e-28
1.68599e-27
2.82019e-27
-8.1158e-27
-1.51516e-26
3.43347e-26
8.62482e-26
-1.1381e-25
-4.72924e-25
1.51356e-25
2.25686e-24
1.59175e-24
-8.06185e-24
-1.66637e-23
1.19446e-23
8.62584e-23
8.30176e-23
-2.11588e-22
-6.91982e-22
-4.30754e-22
1.83625e-21
5.30724e-21
4.21487e-21
-1.06655e-20
-4.08293e-20
-6.07513e-20
-3.99266e-21
2.25173e-19
7.04667e-19
1.42865e-18
2.26435e-18
2.97313e-18
3.30226e-18
3.1055e-18
2.42296e-18
1.46971e-18
5.37327e-19
-1.35079e-19
-4.49245e-19
-4.55803e-19
-2.93171e-19
-1.04022e-19
2.35242e-20
6.91511e-20
5.78886e-20
2.6825e-20
1.85312e-21
-8.65241e-21
-8.25322e-21
-3.88574e-21
-2.58534e-22
1.05854e-21
1.61393e-47
-8.92864e-48
8.91091e-47
-3.88727e-46
1.75567e-45
-7.52685e-45
3.08268e-44
-1.19918e-43
4.4045e-43
-1.51491e-42
4.82152e-42
-1.39352e-41
3.53597e-41
-7.30362e-41
9.38616e-41
9.41721e-41
-1.13374e-39
4.46609e-39
-1.1542e-38
1.76919e-38
7.15924e-39
-1.48597e-37
5.1734e-37
-9.08931e-37
-1.93843e-37
6.56274e-36
-2.0074e-35
2.06819e-35
6.50206e-35
-3.13777e-34
4.46413e-34
7.75537e-34
-4.59852e-33
5.91638e-33
1.45853e-32
-6.46056e-32
3.74395e-32
3.08472e-31
-7.19595e-31
-6.74934e-31
4.98542e-30
-2.40485e-30
-2.49493e-29
3.75579e-29
1.03867e-28
-2.76471e-28
-3.92373e-28
1.63843e-27
1.52048e-27
-8.78017e-27
-7.21511e-27
4.409e-26
4.46478e-26
-2.04734e-25
-3.10703e-25
8.16351e-25
2.06269e-24
-2.171e-24
-1.17269e-23
-2.55302e-24
5.04611e-23
7.80734e-23
-1.11243e-22
-5.14376e-22
-3.86224e-22
1.47533e-21
4.41726e-21
2.96229e-21
-1.1175e-20