/*--------------------------------*- C++ -*----------------------------------*\
  =========                 |
  \\      /  F ield         | OpenFOAM: The Open Source CFD Toolbox
   \\    /   O peration     | Website:  https://openfoam.org
    \\  /    A nd           | Version:  13
     \\/     M anipulation  |
\*---------------------------------------------------------------------------*/
FoamFile
{
    format      ascii;
    class       volScalarField;
    location    "8";
    object      T;
}
// * * * * * * * * * * * * * * * * * * * * * * * * * * * * * * * * * * * * * //

dimensions      [0 0 0 1 0 0 0];

internalField   nonuniform List<scalar> 
10000
(
6.07216e-34
4.9194e-33
4.69042e-33
-1.79487e-32
-6.72628e-32
-5.019e-32
2.61387e-31
8.68275e-31
5.58977e-31
-3.35692e-30
-1.06122e-29
-6.95452e-30
3.81171e-29
1.22834e-28
9.56824e-29
-3.75962e-28
-1.33359e-27
-1.3402e-27
3.05191e-27
1.32928e-26
1.76174e-26
-1.71063e-26
-1.17197e-25
-2.05839e-25
1.16625e-27
8.53774e-25
2.04844e-24
1.53299e-24
-4.32811e-24
-1.64289e-23
-2.36642e-23
3.226e-24
9.43962e-23
2.21057e-22
2.14234e-22
-2.32467e-22
-1.30578e-21
-2.49031e-21
-1.98429e-21
2.97681e-21
1.3747e-20
2.56899e-20
2.39113e-20
-1.48132e-20
-1.07041e-19
-2.33049e-19
-3.04265e-19
-1.55699e-19
4.01153e-19
1.44494e-18
2.75431e-18
3.64278e-18
2.93942e-18
-7.82341e-19
-8.71839e-18
-2.12214e-17
-3.73134e-17
-5.45945e-17
-6.96992e-17
-7.92203e-17
-8.07916e-17
-7.39039e-17
-6.01101e-17
-4.25235e-17
-2.48107e-17
-1.0086e-17
-1.23802e-19
4.86454e-18
5.90491e-18
4.61542e-18
2.54992e-18
7.687e-19
-2.78607e-19
-6.2087e-19
-5.24392e-19
-2.76174e-19
-6.35208e-20
4.68698e-20
6.97738e-20
4.88801e-20
2.06707e-20
2.14684e-21
-5.12804e-21
-5.95994e-21
-4.92858e-21
-4.17369e-21
-3.98883e-21
-4.04769e-21
-4.10703e-21
-4.11861e-21
-4.11197e-21
-4.10806e-21
-4.10819e-21
-4.10884e-21
-4.10893e-21
-4.10885e-21
-4.10883e-21
-4.10884e-21
-4.10884e-21
-4.10884e-21
4.91939e-33
1.09918e-32
-1.4079e-32
-9.45685e-32
-1.29483e-31
2.47449e-31
1.27658e-30
1.49771e-30
-3.56e-30
-1.6013e-29
-1.74e-29
4.35916e-29
1.87546e-28
2.07398e-28
-4.53923e-28
-2.04461e-27
-2.51043e-27
3.85392e-27
2.04775e-26
2.97106e-26
-2.2824e-26
-1.83431e-25
-3.27838e-25
1.38401e-26
1.39761e-24
3.21687e-24
1.9436e-24
-8.09702e-24
-2.66211e-23
-3.22873e-23
2.23793e-23
1.70853e-22
3.2727e-22
1.84223e-22
-6.79697e-22
-2.24847e-21
-3.17798e-21
-4.47646e-22
8.87917e-21
2.28467e-20
2.88187e-20
3.32671e-21
-7.38063e-20
-1.88736e-19
-2.60764e-19
-1.41343e-19
3.17879e-19
1.12218e-18
1.97465e-18
2.22091e-18
1.01778e-18
-2.2549e-18
-7.49524e-18
-1.35923e-17
-1.86346e-17
-2.06664e-17
-1.86971e-17
-1.3419e-17
-7.14086e-18
-2.83614e-18
-2.72298e-18
-7.1215e-18
-1.42313e-17
-2.09747e-17
-2.44561e-17
-2.32588e-17
-1.79343e-17
-1.05232e-17
-3.47488e-18
1.41721e-18
3.56311e-18
3.47117e-18
2.20818e-18
7.96853e-19
-1.56769e-19
-5.18724e-19
-4.60612e-19
-2.37004e-19
-3.28472e-20
8.08703e-20
1.1526e-19
1.10142e-19
9.73083e-20
8.99248e-20
8.83395e-20
8.90617e-20
8.97568e-20
8.99291e-20
8.9865e-20
8.98092e-20
8.98029e-20
8.98109e-20
8.98139e-20
8.98132e-20
8.98126e-20
8.98126e-20
8.98127e-20
8.98127e-20
8.98127e-20
8.98127e-20
4.69039e-33
-1.40791e-32
-5.76947e-32
-4.68173e-32
2.29737e-31
7.90753e-31
4.99695e-31
-3.27396e-30
-1.02397e-29
-5.72288e-30
4.15813e-29
1.25958e-28
7.51766e-29
-4.69787e-28
-1.46907e-27
-1.08983e-27
4.62855e-27
1.60645e-26
1.57823e-26
-3.76692e-26
-1.61095e-25
-2.11064e-25
2.13746e-25
1.42792e-24
2.48654e-24
-7.47232e-26
-1.04755e-23
-2.48625e-23
-1.8014e-23
5.41188e-23
2.00561e-22
2.82236e-22
-5.8005e-23
-1.17111e-21
-2.66051e-21
-2.42282e-21
3.19111e-21
1.60534e-20
2.91903e-20
2.04539e-20
-4.16958e-20
-1.67544e-19
-2.92346e-19
-2.34987e-19
2.58974e-19
1.3196e-18
2.61306e-18
3.03844e-18
8.02757e-19
-5.77979e-18
-1.67122e-17
-2.84795e-17
-3.304e-17
-1.88579e-17
2.54627e-17
1.05733e-16
2.17131e-16
3.42329e-16
4.54676e-16
5.26082e-16
5.36774e-16
4.82786e-16
3.7772e-16
2.47889e-16
1.22989e-16
2.63989e-17
-3.09638e-17
-5.12894e-17
-4.57848e-17
-2.84699e-17
-1.08084e-17
9.86128e-19
5.78277e-18
5.58336e-18
3.24712e-18
9.38219e-19
-3.88535e-19
-7.35079e-19
-5.27755e-19
-1.85843e-19
6.49392e-20
1.80628e-19
2.06929e-19
1.99478e-19
1.8973e-19
1.85922e-19
1.85905e-19
1.86607e-19
1.86893e-19
1.86872e-19
1.86816e-19
1.86804e-19
1.8681e-19
1.86814e-19
1.86813e-19
1.86813e-19
1.86813e-19
1.86813e-19
1.86813e-19
1.86813e-19
-1.79487e-32
-9.45686e-32
-4.68176e-32
4.41171e-31
1.25581e-30
3.27963e-31
-6.24879e-30
-1.58952e-29
-2.20057e-30
7.95935e-29
1.92553e-28
2.82626e-29
-9.1414e-28
-2.23805e-27
-6.44215e-28
9.36626e-27
2.4745e-26
1.3447e-26
-8.30033e-26
-2.54902e-25
-2.26116e-25
5.88782e-25
2.36463e-24
3.0913e-24
-2.53522e-24
-1.87126e-23
-3.44742e-23
-8.54189e-24
1.13479e-22
3.06402e-22
3.16542e-22
-3.58145e-22
-2.01616e-21
-3.66471e-21
-1.99225e-21
7.58355e-21
2.54214e-20
3.82612e-20
1.36633e-20
-8.63253e-20
-2.58929e-19
-3.9163e-19
-2.24081e-19
5.66524e-19
2.08032e-18
3.74937e-18
3.97527e-18
2.79471e-19
-9.61152e-18
-2.56694e-17
-4.30334e-17
-5.03058e-17
-3.01912e-17
3.65488e-17
1.64214e-16
3.54422e-16
5.90709e-16
8.38525e-16
1.05193e-15
1.18564e-15
1.20854e-15
1.11372e-15
9.21076e-16
6.71378e-16
4.13929e-16
1.92484e-16
3.4444e-17
-5.3337e-17
-8.16685e-17
-7.13703e-17
-4.45037e-17
-1.77884e-17
1.28449e-19
7.80762e-18
8.1097e-18
5.06786e-18
1.78874e-18
-2.67203e-19
-9.82033e-19
-8.77769e-19
-5.19243e-19
-2.33127e-19
-1.00943e-19
-7.4997e-20
-8.75074e-20
-1.00111e-19
-1.04147e-19
-1.03583e-19
-1.02578e-19
-1.02303e-19
-1.02391e-19
-1.02464e-19
-1.02467e-19
-1.02456e-19
-1.02454e-19
-1.02455e-19
-1.02455e-19
-1.02455e-19
-1.02455e-19
-1.02455e-19
-6.72627e-32
-1.29483e-31
2.29737e-31
1.25581e-30
1.47351e-30
-3.84187e-30
-1.68369e-29
-1.65627e-29
5.4225e-29
2.10709e-28
1.89953e-28
-6.63213e-28
-2.47413e-27
-2.29072e-27
7.0195e-27
2.71857e-26
2.86382e-26
-6.23147e-26
-2.76066e-25
-3.53061e-25
4.19509e-25
2.5263e-24
4.05806e-24
-1.2754e-24
-1.99102e-23
-4.14017e-23
-1.71233e-23
1.23119e-22
3.56784e-22
3.76081e-22
-4.37506e-22
-2.41296e-21
-4.18139e-21
-1.52262e-21
1.07113e-20
3.07956e-20
3.8765e-20
-5.7084e-21
-1.35589e-19
-3.09966e-19
-3.43417e-19
7.45424e-20
1.1597e-18
2.60767e-18
3.1993e-18
9.23186e-19
-5.91344e-18
-1.66317e-17
-2.61739e-17
-2.49255e-17
-1.95276e-18
4.84441e-17
1.19602e-16
1.89466e-16
2.257e-16
1.99083e-16
9.99223e-17
-5.14097e-17
-2.07408e-16
-3.1095e-16
-3.20128e-16
-2.28013e-16
-6.67581e-17
1.0647e-16
2.34508e-16
2.83413e-16
2.52915e-16
1.70731e-16
7.59179e-17
1.00309e-18
-3.86907e-17
-4.55245e-17
-3.24891e-17
-1.41326e-17
-2.18627e-19
6.04479e-18
6.21386e-18
3.57082e-18
7.93778e-19
-9.11611e-19
-1.53121e-18
-1.54707e-18
-1.40058e-18
-1.30036e-18
-1.27308e-18
-1.27968e-18
-1.28861e-18
-1.29132e-18
-1.2907e-18
-1.28996e-18
-1.28984e-18
-1.28994e-18
-1.28998e-18
-1.28997e-18
-1.28997e-18
-1.28997e-18
-1.28997e-18
-1.28997e-18
-1.28997e-18
-1.28997e-18
-5.01897e-32
2.4745e-31
7.90753e-31
3.27959e-31
-3.84188e-30
-1.06032e-29
-2.4752e-30
5.33159e-29
1.35579e-28
2.29222e-29
-6.69354e-28
-1.66372e-27
-3.84948e-28
7.58289e-27
1.95531e-26
8.08715e-27
-7.62502e-26
-2.17355e-25
-1.50936e-25
6.53363e-25
2.23238e-24
2.35036e-24
-4.28749e-24
-2.04291e-23
-3.04507e-23
1.29636e-23
1.56966e-22
3.25345e-22
1.59274e-22
-8.8982e-22
-2.77442e-21
-3.39245e-21
2.01396e-21
1.72944e-20
3.52784e-20
2.62317e-20
-5.65712e-20
-2.28594e-19
-3.80708e-19
-2.07585e-19
6.89631e-19
2.37137e-18
3.85494e-18
2.64542e-18
-4.54123e-18
-1.90025e-17
-3.55391e-17
-3.87264e-17
-4.53611e-18
8.82976e-17
2.36886e-16
3.90065e-16
4.36138e-16
2.18336e-16
-4.15273e-16
-1.53862e-15
-3.08101e-15
-4.80366e-15
-6.34387e-15
-7.32136e-15
-7.46906e-15
-6.73313e-15
-5.29657e-15
-3.51465e-15
-1.79023e-15
-4.43458e-16
3.71957e-16
6.79429e-16
6.26378e-16
4.01663e-16
1.62786e-16
-1.99096e-18
-7.32287e-17
-7.52876e-17
-4.59391e-17
-1.49183e-17
3.84093e-18
9.47164e-18
7.28348e-18
2.89179e-18
-5.03886e-19
-2.14594e-18
-2.56146e-18
-2.4836e-18
-2.35248e-18
-2.2964e-18
-2.29365e-18
-2.30287e-18
-2.30712e-18
-2.30704e-18
-2.30627e-18
-2.30607e-18
-2.30615e-18
-2.3062e-18
-2.30619e-18
-2.30618e-18
-2.30618e-18
-2.30619e-18
-2.30619e-18
-2.30619e-18
2.61388e-31
1.27658e-30
4.99696e-31
-6.24879e-30
-1.68369e-29
-2.47523e-30
8.80967e-29
2.12087e-28
3.40632e-30
-1.1206e-27
-2.56326e-27
-5.5621e-29
1.28973e-26
2.98185e-26
4.98397e-27
-1.33027e-25
-3.31101e-25
-1.43043e-25
1.19579e-24
3.43691e-24
2.69814e-24
-8.75724e-24
-3.22475e-23
-3.89766e-23
4.21038e-23
2.59632e-22
4.49462e-22
4.90527e-23
-1.62612e-21
-4.10185e-21
-3.82909e-21
5.76997e-21
2.7824e-20
4.75429e-20
2.00736e-20
-1.12178e-19
-3.43686e-19
-4.84917e-19
-1.0563e-19
1.25685e-18
3.47217e-18
4.94819e-18
2.25998e-18
-8.54238e-18
-2.81004e-17
-4.81466e-17
-4.74809e-17
5.03556e-18
1.35627e-16
3.3887e-16
5.47278e-16
6.1318e-16
3.20695e-16
-5.62377e-16
-2.19989e-15
-4.5963e-15
-7.53716e-15
-1.05949e-14
-1.32125e-14
-1.48471e-14
-1.51278e-14
-1.39718e-14
-1.16154e-14
-8.5449e-15
-5.35427e-15
-2.57892e-15
-5.64776e-16
5.87453e-16
9.94416e-16
9.0261e-16
5.83097e-16
2.48553e-16
1.50764e-17
-9.15916e-17
-1.0259e-16
-6.73019e-17
-2.58583e-17
1.54862e-18
1.20374e-17
1.15953e-17
7.3704e-18
3.75146e-18
1.99994e-18
1.61923e-18
1.76379e-18
1.92703e-18
1.98282e-18
1.97706e-18
1.964e-18
1.96013e-18
1.96118e-18
1.96216e-18
1.96222e-18
1.96208e-18
1.96205e-18
1.96206e-18
1.96207e-18
1.96207e-18
1.96207e-18
1.96207e-18
8.68274e-31
1.49771e-30
-3.27395e-30
-1.58952e-29
-1.65627e-29
5.33159e-29
2.12087e-28
1.81716e-28
-7.44015e-28
-2.64968e-27
-2.0634e-27
9.08274e-27
3.11608e-26
2.52013e-26
-9.68081e-26
-3.44088e-25
-3.24519e-25
8.7674e-25
3.52367e-24
4.13765e-24
-6.2161e-24
-3.26469e-23
-4.90246e-23
2.45176e-23
2.62059e-22
5.13491e-22
1.51032e-22
-1.67351e-21
-4.53575e-21
-4.36676e-21
6.56103e-21
3.15639e-20
5.16944e-20
1.26379e-20
-1.47474e-19
-3.96188e-19
-4.66382e-19
1.53149e-19
1.8376e-18
3.96799e-18
4.08101e-18
-1.74131e-18
-1.58816e-17
-3.36967e-17
-3.88033e-17
-5.50418e-18
8.58439e-17
2.21895e-16
3.31613e-16
2.8751e-16
-4.72416e-17
-7.29287e-16
-1.64193e-15
-2.4617e-15
-2.73724e-15
-2.07905e-15
-3.85209e-16
2.01933e-15
4.43221e-15
6.02448e-15
6.19047e-15
4.82554e-15
2.3851e-15
-3.10108e-16
-2.42416e-15
-3.43573e-15
-3.29445e-15
-2.35361e-15
-1.14624e-15
-1.36657e-16
4.35365e-16
5.7239e-16
4.31165e-16
2.01517e-16
1.7609e-17
-7.0952e-17
-7.91918e-17
-4.79232e-17
-1.24015e-17
1.04354e-17
1.93475e-17
2.01109e-17
1.84241e-17
1.71455e-17
1.67596e-17
1.68226e-17
1.69332e-17
1.69702e-17
1.69639e-17
1.69548e-17
1.6953e-17
1.69541e-17
1.69547e-17
1.69546e-17
1.69545e-17
1.69545e-17
1.69545e-17
1.69545e-17
1.69545e-17
1.69545e-17
5.58974e-31
-3.56e-30
-1.02397e-29
-2.20053e-30
5.4225e-29
1.35579e-28
3.40599e-30
-7.44016e-28
-1.71948e-27
6.78514e-29
9.2867e-27
2.10409e-26
7.25993e-28
-1.05187e-25
-2.47923e-25
-5.90856e-26
1.06488e-24
2.77571e-24
1.5101e-24
-9.29091e-24
-2.88156e-23
-2.65956e-23
6.38829e-23
2.67455e-22
3.66312e-22
-2.44079e-22
-2.09617e-21
-4.06065e-21
-1.46498e-21
1.23331e-20
3.5597e-20
4.02146e-20
-3.35846e-20
-2.28552e-19
-4.41954e-19
-2.89284e-19
8.02529e-19
2.96361e-18
4.71852e-18
2.17657e-18
-9.5103e-18
-3.05884e-17
-4.79773e-17
-2.99645e-17
6.37618e-17
2.46535e-16
4.48559e-16
4.72536e-16
1.80412e-17
-1.17213e-15
-3.04305e-15
-4.92978e-15
-5.41306e-15
-2.52315e-15
5.62928e-15
1.99398e-14
3.9486e-14
6.12475e-14
8.06666e-14
9.29788e-14
9.4843e-14
8.55851e-14
6.74923e-14
4.50102e-14
2.31921e-14
6.07199e-15
-4.38671e-15
-8.43816e-15
-7.90286e-15
-5.14217e-15
-2.14521e-15
-4.49224e-17
8.88844e-16
9.44416e-16
5.89942e-16
2.01535e-16
-3.93667e-17
-1.16148e-16
-9.2566e-17
-3.88172e-17
3.93388e-18
2.51031e-17
3.07257e-17
2.98973e-17
2.82522e-17
2.75162e-17
2.74648e-17
2.75791e-17
2.76352e-17
2.76353e-17
2.76257e-17
2.76229e-17
2.76238e-17
2.76245e-17
2.76244e-17
2.76243e-17
2.76243e-17
2.76243e-17
2.76243e-17
2.76243e-17
-3.35692e-30
-1.6013e-29
-5.72288e-30
7.95935e-29
2.10709e-28
2.29223e-29
-1.1206e-27
-2.64968e-27
6.78489e-29
1.42492e-26
3.1995e-26
-6.86483e-28
-1.6412e-25
-3.72266e-25
-4.6577e-26
1.69655e-24
4.13928e-24
1.62699e-24
-1.53215e-23
-4.3077e-23
-3.22808e-23
1.1335e-22
4.0575e-22
4.76501e-22
-5.6277e-22
-3.28613e-21
-5.56358e-21
-3.18572e-22
2.08067e-20
5.12616e-20
4.59914e-20
-7.65552e-20
-3.51491e-19
-5.87078e-19
-2.20423e-19
1.45075e-18
4.30933e-18
5.93108e-18
9.59477e-19
-1.61725e-17
-4.33975e-17
-6.04195e-17
-2.47411e-17
1.11211e-16
3.52114e-16
5.91519e-16
5.65584e-16
-1.04771e-16
-1.7267e-15
-4.20794e-15
-6.69387e-15
-7.36415e-15
-3.59955e-15
7.37451e-15
2.74668e-14
5.66452e-14
9.22573e-14
1.29133e-13
1.60605e-13
1.80209e-13
1.83549e-13
1.6965e-13
1.41319e-13
1.04339e-13
6.57971e-14
3.21208e-14
7.51603e-15
-6.72378e-15
-1.19209e-14
-1.09936e-14
-7.20312e-15
-3.14515e-15
-2.67078e-16
1.07993e-15
1.24986e-15
8.35958e-16
3.31248e-16
-9.68124e-18
-1.44737e-16
-1.43756e-16
-9.38393e-17
-4.97457e-17
-2.80047e-17
-2.3102e-17
-2.47951e-17
-2.68036e-17
-2.75072e-17
-2.7444e-17
-2.7283e-17
-2.72339e-17
-2.72464e-17
-2.72585e-17
-2.72595e-17
-2.72577e-17
-2.72573e-17
-2.72575e-17
-2.72575e-17
-2.72575e-17
-2.72575e-17
-2.72575e-17
-1.06122e-29
-1.74e-29
4.15813e-29
1.92553e-28
1.89953e-28
-6.69354e-28
-2.56326e-27
-2.0634e-27
9.28669e-27
3.1995e-26
2.33818e-26
-1.13104e-25
-3.76433e-25
-2.88148e-25
1.20611e-24
4.16342e-24
3.76796e-24
-1.09662e-23
-4.27456e-23
-4.87671e-23
7.86226e-23
3.97371e-22
5.84641e-22
-3.25538e-22
-3.20339e-21
-6.17692e-21
-1.62253e-21
2.05866e-20
5.4923e-20
5.17511e-20
-8.20293e-20
-3.84393e-19
-6.22639e-19
-1.3852e-19
1.8089e-18
4.80758e-18
5.60447e-18
-1.98053e-18
-2.2425e-17
-4.8123e-17
-4.91675e-17
2.18168e-17
1.93417e-16
4.09069e-16
4.70204e-16
6.57041e-17
-1.04245e-15
-2.69392e-15
-4.03123e-15
-3.51278e-15
5.22089e-16
8.7769e-15
1.98754e-14
2.99532e-14
3.35958e-14
2.61084e-14
6.22246e-15
-2.22273e-14
-5.08829e-14
-6.98533e-14
-7.18969e-14
-5.57455e-14
-2.6817e-14
5.10603e-15
3.0059e-14
4.18362e-14
3.98603e-14
2.83756e-14
1.37685e-14
1.59394e-15
-5.28886e-15
-6.92679e-15
-5.21403e-15
-2.43835e-15
-2.15874e-16
8.55692e-16
9.57204e-16
5.80653e-16
1.51589e-16
-1.24987e-16
-2.33488e-16
-2.43297e-16
-2.23177e-16
-2.07776e-16
-2.03085e-16
-2.03819e-16
-2.05147e-16
-2.05596e-16
-2.05522e-16
-2.05412e-16
-2.0539e-16
-2.05403e-16
-2.0541e-16
-2.05409e-16
-2.05408e-16
-2.05408e-16
-2.05408e-16
-2.05408e-16
-2.05408e-16
-2.05408e-16
-6.9545e-30
4.35917e-29
1.25958e-28
2.82622e-29
-6.63214e-28
-1.66372e-27
-5.56176e-29
9.08274e-27
2.10409e-26
-6.86516e-28
-1.13104e-25
-2.56678e-25
-1.01799e-26
1.27765e-24
3.01454e-24
7.29123e-25
-1.2896e-23
-3.36375e-23
-1.83753e-23
1.12143e-22
3.48015e-22
3.21656e-22
-7.68027e-22
-3.21881e-21
-4.41096e-21
2.91337e-21
2.51325e-20
4.87039e-20
1.77116e-20
-1.47205e-19
-4.25248e-19
-4.81142e-19
3.97023e-19
2.71791e-18
5.26109e-18
3.46284e-18
-9.47365e-18
-3.50989e-17
-5.59763e-17
-2.61368e-17
1.117e-16
3.60615e-16
5.66827e-16
3.5736e-16
-7.42115e-16
-2.88996e-15
-5.27063e-15
-5.57521e-15
-2.86355e-16
1.36122e-14
3.54973e-14
5.76335e-14
6.3495e-14
3.01448e-14
-6.4413e-14
-2.30602e-13
-4.57693e-13
-7.10551e-13
-9.36178e-13
-1.07919e-12
-1.10076e-12
-9.93083e-13
-7.82778e-13
-5.21537e-13
-2.68102e-13
-6.93529e-14
5.19154e-14
9.86932e-14
9.2182e-14
5.98644e-14
2.4882e-14
4.04327e-16
-1.04496e-14
-1.10594e-14
-6.89446e-15
-2.3454e-15
4.71782e-16
1.36646e-15
1.08656e-15
4.54443e-16
-4.78288e-17
-2.965e-16
-3.6256e-16
-3.52836e-16
-3.33507e-16
-3.24853e-16
-3.24247e-16
-3.25591e-16
-3.2625e-16
-3.26253e-16
-3.26139e-16
-3.26107e-16
-3.26117e-16
-3.26125e-16
-3.26124e-16
-3.26123e-16
-3.26123e-16
-3.26123e-16
-3.26123e-16
-3.26123e-16
3.81171e-29
1.87546e-28
7.51765e-29
-9.14141e-28
-2.47413e-27
-3.84948e-28
1.28973e-26
3.11609e-26
7.26012e-28
-1.6412e-25
-3.76434e-25
-1.01802e-26
1.88927e-24
4.37614e-24
7.45164e-25
-1.94893e-23
-4.85571e-23
-2.1027e-23
1.75238e-22
5.03725e-22
3.95065e-22
-1.28442e-21
-4.72472e-21
-5.69983e-21
6.19678e-21
3.80461e-20
6.57069e-20
6.76832e-21
-2.38599e-19
-5.99832e-19
-5.56358e-19
8.52301e-19
4.07409e-18
6.92955e-18
2.85752e-18
-1.65073e-17
-5.02138e-17
-7.04074e-17
-1.4335e-17
1.84806e-16
5.06426e-16
7.16727e-16
3.17238e-16
-1.26102e-15
-4.09781e-15
-6.97444e-15
-6.80538e-15
9.01989e-16
1.98728e-14
4.91987e-14
7.89915e-14
8.78672e-14
4.47955e-14
-8.3346e-14
-3.19619e-13
-6.64101e-13
-1.0856e-12
-1.52274e-12
-1.89602e-12
-2.12831e-12
-2.16718e-12
-2.00121e-12
-1.66417e-12
-1.22534e-12
-7.69204e-13
-3.72017e-13
-8.31963e-14
8.26425e-14
1.41853e-13
1.29418e-13
8.40056e-14
3.61045e-14
2.48659e-15
-1.30036e-14
-1.47253e-14
-9.72514e-15
-3.77691e-15
1.8634e-16
1.72181e-15
1.67595e-15
1.07517e-15
5.55096e-16
3.01742e-16
2.45956e-16
2.66468e-16
2.90019e-16
2.98136e-16
2.97335e-16
2.95449e-16
2.94885e-16
2.95035e-16
2.95176e-16
2.95186e-16
2.95165e-16
2.9516e-16
2.95163e-16
2.95164e-16
2.95163e-16
2.95163e-16
2.95163e-16
1.22834e-28
2.07398e-28
-4.69787e-28
-2.23805e-27
-2.29072e-27
7.58289e-27
2.98185e-26
2.52013e-26
-1.05187e-25
-3.72266e-25
-2.88148e-25
1.27764e-24
4.37614e-24
3.54927e-24
-1.35436e-23
-4.82907e-23
-4.59792e-23
1.21698e-22
4.93738e-22
5.87362e-22
-8.49359e-22
-4.55894e-21
-6.94811e-21
3.14092e-21
3.63476e-20
7.24483e-20
2.42706e-20
-2.28764e-19
-6.34974e-19
-6.35975e-19
8.54676e-19
4.3585e-18
7.34577e-18
2.29355e-18
-1.97225e-17
-5.51025e-17
-6.78283e-17
1.356e-17
2.45985e-16
5.53925e-16
6.05757e-16
-1.49226e-16
-2.08993e-15
-4.67074e-15
-5.72415e-15
-1.67252e-15
1.05214e-14
2.97371e-14
4.71261e-14
4.56954e-14
5.83068e-15
-8.33558e-14
-2.11535e-13
-3.416e-13
-4.18047e-13
-3.89721e-13
-2.37984e-13
4.87983e-15
2.60113e-13
4.3185e-13
4.49171e-13
2.99774e-13
3.71725e-14
-2.42959e-13
-4.45096e-13
-5.13153e-13
-4.48078e-13
-2.98012e-13
-1.29839e-13
1.25302e-15
6.98447e-14
8.08826e-14
5.74094e-14
2.48996e-14
3.56008e-16
-1.06852e-14
-1.09942e-14
-6.343e-15
-1.44043e-15
1.58528e-15
2.69853e-15
2.74096e-15
2.48911e-15
2.31358e-15
2.26478e-15
2.27575e-15
2.29128e-15
2.2961e-15
2.29506e-15
2.29378e-15
2.29356e-15
2.29372e-15
2.2938e-15
2.29379e-15
2.29378e-15
2.29378e-15
2.29378e-15
2.29378e-15
2.29378e-15
2.29378e-15
9.56824e-29
-4.53923e-28
-1.46907e-27
-6.44214e-28
7.01951e-27
1.95531e-26
4.98395e-27
-9.68082e-26
-2.47923e-25
-4.65767e-26
1.20611e-24
3.01454e-24
7.45161e-25
-1.35436e-23
-3.50851e-23
-1.49614e-23
1.34829e-22
3.86047e-22
2.72046e-22
-1.14172e-21
-3.92258e-21
-4.16325e-21
7.37125e-21
3.54843e-20
5.31761e-20
-2.1214e-20
-2.69079e-19
-5.6057e-19
-2.83346e-19
1.49865e-18
4.71347e-18
5.82008e-18
-3.20278e-18
-2.88867e-17
-5.93891e-17
-4.52571e-17
9.14282e-17
3.77452e-16
6.34722e-16
3.62029e-16
-1.09869e-15
-3.86006e-15
-6.34347e-15
-4.51184e-15
6.97955e-15
3.03354e-14
5.73883e-14
6.36014e-14
1.0568e-14
-1.36034e-13
-3.72628e-13
-6.19623e-13
-7.02054e-13
-3.73851e-13
6.03736e-13
2.34734e-12
4.74707e-12
7.42996e-12
9.82926e-12
1.1351e-11
1.15785e-11
1.04286e-11
8.18788e-12
5.41183e-12
2.72954e-12
6.40068e-13
-6.1811e-13
-1.08351e-12
-9.8819e-13
-6.28343e-13
-2.50321e-13
8.53957e-15
1.18998e-13
1.20389e-13
7.27533e-14
2.31132e-14
-6.66003e-15
-1.54095e-14
-1.17174e-14
-4.57891e-15
9.05883e-16
3.54941e-15
4.21485e-15
4.08712e-15
3.87519e-15
3.78488e-15
3.7806e-15
3.79554e-15
3.8024e-15
3.80224e-15
3.80101e-15
3.80069e-15
3.80081e-15
3.80089e-15
3.80088e-15
3.80087e-15
3.80087e-15
3.80087e-15
3.80087e-15
3.80087e-15
-3.75962e-28
-2.04461e-27
-1.08983e-27
9.36627e-27
2.71857e-26
8.08715e-27
-1.33027e-25
-3.44089e-25
-5.90858e-26
1.69655e-24
4.16342e-24
7.29126e-25
-1.94893e-23
-4.82907e-23
-1.49614e-23
1.99582e-22
5.32527e-22
2.97557e-22
-1.76679e-21
-5.47071e-21
-4.90527e-21
1.25133e-20
5.06266e-20
6.64404e-20
-5.37337e-20
-3.99942e-19
-7.37325e-19
-1.82583e-19
2.42486e-18
6.53691e-18
6.72323e-18
-7.7094e-18
-4.30038e-17
-7.77697e-17
-4.14181e-17
1.62768e-16
5.40111e-16
8.06019e-16
2.72989e-16
-1.85113e-15
-5.47929e-15
-8.2007e-15
-4.52577e-15
1.22391e-14
4.39454e-14
7.83336e-14
8.17489e-14
2.79871e-15
-2.0453e-13
-5.37245e-13
-8.91774e-13
-1.0307e-12
-5.98479e-13
7.95239e-13
3.43445e-12
7.34097e-12
1.21691e-11
1.72102e-11
2.15323e-11
2.42237e-11
2.46631e-11
2.27182e-11
1.87952e-11
1.37181e-11
8.48188e-12
3.97068e-12
7.40913e-13
-1.06407e-12
-1.65821e-12
-1.4603e-12
-9.17672e-13
-3.7214e-13
-2.89643e-15
1.57774e-13
1.66479e-13
1.05178e-13
3.78535e-14
-4.88645e-15
-2.0091e-14
-1.82488e-14
-1.09712e-14
-5.0737e-15
-2.31969e-15
-1.76577e-15
-2.01906e-15
-2.28058e-15
-2.36557e-15
-2.35439e-15
-2.33352e-15
-2.32769e-15
-2.32949e-15
-2.33102e-15
-2.3311e-15
-2.33087e-15
-2.33082e-15
-2.33084e-15
-2.33085e-15
-2.33085e-15
-2.33085e-15
-2.33085e-15
-1.33359e-27
-2.51043e-27
4.62855e-27
2.47451e-26
2.86382e-26
-7.62502e-26
-3.31101e-25
-3.24519e-25
1.06488e-24
4.13928e-24
3.76796e-24
-1.2896e-23
-4.85571e-23
-4.59792e-23
1.34829e-22
5.32527e-22
5.78449e-22
-1.17325e-21
-5.38512e-21
-7.12743e-21
7.54194e-21
4.88703e-20
8.14134e-20
-1.69534e-20
-3.78962e-19
-8.21311e-19
-4.13234e-19
2.26111e-18
6.95294e-18
7.93042e-18
-6.98704e-18
-4.55858e-17
-8.40612e-17
-4.19724e-17
1.8724e-16
5.91727e-16
8.13645e-16
6.87603e-17
-2.38572e-15
-6.00331e-15
-7.46497e-15
-6.66081e-16
1.96124e-14
4.97532e-14
6.87738e-14
3.78947e-14
-8.22042e-14
-2.94689e-13
-5.24928e-13
-6.04142e-13
-3.09196e-13
5.35262e-13
1.92959e-12
3.62076e-12
5.14429e-12
6.00281e-12
5.91229e-12
4.98417e-12
3.72213e-12
2.8046e-12
2.75024e-12
3.64437e-12
5.08177e-12
6.36283e-12
6.83674e-12
6.20591e-12
4.63722e-12
2.64224e-12
8.15162e-13
-4.2187e-13
-9.4612e-13
-9.0268e-13
-5.68442e-13
-2.0306e-13
4.17978e-14
1.34214e-13
1.19039e-13
6.15326e-14
8.9522e-15
-2.05168e-14
-2.96283e-14
-2.85097e-14
-2.53026e-14
-2.34235e-14
-2.30071e-14
-2.31835e-14
-2.33591e-14
-2.34038e-14
-2.33881e-14
-2.3374e-14
-2.33723e-14
-2.33743e-14
-2.33751e-14
-2.33749e-14
-2.33747e-14
-2.33747e-14
-2.33748e-14
-2.33748e-14
-2.33748e-14
-2.33748e-14
-1.3402e-27
3.85392e-27
1.60645e-26
1.3447e-26
-6.23148e-26
-2.17355e-25
-1.43043e-25
8.76741e-25
2.77571e-24
1.62699e-24
-1.09662e-23
-3.36375e-23
-2.10269e-23
1.21698e-22
3.86047e-22
2.97557e-22
-1.17325e-21
-4.14768e-21
-4.19728e-21
9.26928e-21
4.07796e-20
5.46998e-20
-4.96157e-20
-3.53214e-19
-6.281e-19
-2.34785e-20
2.51548e-18
6.11408e-18
4.72961e-18
-1.23539e-17
-4.7836e-17
-6.94962e-17
7.12969e-18
2.67856e-16
6.28084e-16
6.06936e-16
-6.47824e-16
-3.61579e-15
-6.79544e-15
-5.22064e-15
8.36109e-15
3.67719e-14
6.64241e-14
5.77615e-14
-4.61839e-14
-2.77607e-13
-5.70355e-13
-6.92632e-13
-2.58866e-13
1.10509e-12
3.43113e-12
6.02032e-12
7.22452e-12
4.65359e-12
-4.07343e-12
-2.01966e-11
-4.27633e-11
-6.82337e-11
-9.11354e-11
-1.05691e-10
-1.07839e-10
-9.67731e-11
-7.53064e-11
-4.886e-11
-2.35327e-11
-4.09979e-12
7.24643e-12
1.10167e-11
9.5656e-12
5.80191e-12
2.07944e-12
-3.5121e-13
-1.29557e-12
-1.20058e-12
-6.77413e-13
-1.79834e-13
9.81851e-14
1.64526e-13
1.14167e-13
3.77088e-14
-1.71757e-14
-4.20775e-14
-4.7527e-14
-4.57824e-14
-4.36435e-14
-4.28307e-14
-4.28389e-14
-4.2994e-14
-4.30551e-14
-4.30497e-14
-4.30374e-14
-4.30349e-14
-4.30363e-14
-4.3037e-14
-4.30369e-14
-4.30367e-14
-4.30367e-14
-4.30368e-14
-4.30368e-14
-4.30368e-14
3.05191e-27
2.04775e-26
1.57823e-26
-8.30033e-26
-2.76066e-25
-1.50936e-25
1.19579e-24
3.52367e-24
1.5101e-24
-1.53215e-23
-4.27456e-23
-1.83753e-23
1.75238e-22
4.93739e-22
2.72046e-22
-1.76679e-21
-5.38513e-21
-4.19728e-21
1.51127e-20
5.43568e-20
5.97344e-20
-9.86273e-20
-4.90641e-19
-7.41002e-19
2.91456e-19
3.73532e-18
7.74484e-18
3.75735e-18
-2.11098e-17
-6.52951e-17
-7.88589e-17
4.89972e-17
4.04698e-16
8.16404e-16
5.95488e-16
-1.3217e-15
-5.26528e-15
-8.72948e-15
-4.78916e-15
1.55917e-14
5.39662e-14
8.87008e-14
6.40255e-14
-9.5507e-14
-4.25669e-13
-8.2222e-13
-9.491e-13
-2.51111e-13
1.82588e-12
5.37385e-12
9.43469e-12
1.15655e-11
7.91761e-12
-5.91747e-12
-3.33475e-11
-7.49636e-11
-1.27224e-10
-1.82376e-10
-2.29974e-10
-2.59672e-10
-2.64391e-10
-2.42659e-10
-1.99178e-10
-1.43372e-10
-8.64655e-11
-3.82217e-11
-4.51797e-12
1.3482e-11
1.85318e-11
1.54678e-11
9.21182e-12
3.34779e-12
-3.94347e-13
-1.85877e-12
-1.76999e-12
-1.03777e-12
-3.20594e-13
9.90171e-14
2.24306e-13
1.8231e-13
9.66614e-14
3.36024e-14
6.15714e-15
1.55828e-15
4.61432e-15
7.31692e-15
8.10686e-15
7.9523e-15
7.73774e-15
7.68519e-15
7.7059e-15
7.72098e-15
7.72127e-15
7.71891e-15
7.71847e-15
7.71875e-15
7.71884e-15
7.71881e-15
7.7188e-15
7.7188e-15
1.32928e-26
2.97106e-26
-3.76693e-26
-2.54903e-25
-3.53061e-25
6.53364e-25
3.43691e-24
4.13765e-24
-9.29091e-24
-4.30771e-23
-4.87671e-23
1.12143e-22
5.03726e-22
5.87362e-22
-1.14172e-21
-5.47071e-21
-7.12743e-21
9.26928e-21
5.43568e-20
8.38714e-20
-4.78363e-20
-4.79538e-19
-9.13925e-19
-1.09142e-19
3.54631e-18
8.79668e-18
6.54647e-18
-1.91277e-17
-7.06873e-17
-9.57779e-17
3.4032e-17
4.30222e-16
9.10618e-16
6.86035e-16
-1.46352e-15
-5.83719e-15
-9.34614e-15
-3.98105e-15
1.9613e-14
6.00663e-14
8.82468e-14
4.093e-14
-1.50777e-13
-4.84702e-13
-7.87656e-13
-6.70951e-13
3.53315e-13
2.54053e-12
5.45264e-12
7.62221e-12
6.66159e-12
-1.18375e-14
-1.40149e-11
-3.49499e-11
-6.01218e-11
-8.5358e-11
-1.06635e-10
-1.21664e-10
-1.30497e-10
-1.34792e-10
-1.3618e-10
-1.34825e-10
-1.29149e-10
-1.16946e-10
-9.71769e-11
-7.12962e-11
-4.32265e-11
-1.79645e-11
3.93422e-13
1.01329e-11
1.22169e-11
9.41888e-12
4.90971e-12
1.05761e-12
-1.0881e-12
-1.6156e-12
-1.19139e-12
-5.10156e-13
9.04116e-15
2.55397e-13
3.02886e-13
2.68098e-13
2.28734e-13
2.1019e-13
2.07685e-13
2.10317e-13
2.12192e-13
2.1253e-13
2.12305e-13
2.12159e-13
2.12152e-13
2.12175e-13
2.12182e-13
2.1218e-13
2.12178e-13
2.12179e-13
2.12179e-13
2.12179e-13
2.12179e-13
2.12179e-13
1.76174e-26
-2.2824e-26
-1.61096e-25
-2.26117e-25
4.19509e-25
2.23238e-24
2.69814e-24
-6.2161e-24
-2.88156e-23
-3.22809e-23
7.86226e-23
3.48015e-22
3.95065e-22
-8.4936e-22
-3.92258e-21
-4.90527e-21
7.54194e-21
4.07796e-20
5.97344e-20
-4.78363e-20
-3.8172e-19
-6.82906e-19
6.12947e-20
3.07688e-18
7.01417e-18
3.86011e-18
-1.94129e-17
-6.16931e-17
-7.10055e-17
6.81503e-17
4.3264e-16
7.87606e-16
3.21299e-16
-2.04198e-15
-6.07781e-15
-7.74313e-15
1.63483e-15
2.95729e-14
6.7073e-14
7.08019e-14
-3.39415e-14
-2.98299e-13
-6.35333e-13
-7.05912e-13
5.06628e-14
2.07638e-12
5.01964e-12
7.02275e-12
4.62559e-12
-5.98058e-12
-2.61123e-11
-5.10062e-11
-6.74852e-11
-5.52601e-11
6.86475e-12
1.31121e-10
3.11243e-10
5.18483e-10
7.06861e-10
8.27163e-10
8.44581e-10
7.52295e-10
5.74602e-10
3.57963e-10
1.54031e-10
2.26956e-12
-8.06055e-11
-1.0105e-10
-8.06281e-11
-4.45433e-11
-1.21812e-11
7.13454e-12
1.31456e-11
1.06542e-11
5.28066e-12
8.2627e-13
-1.35322e-12
-1.62347e-12
-9.70748e-13
-2.12695e-13
2.76467e-13
4.74685e-13
5.04744e-13
4.82055e-13
4.62716e-13
4.56867e-13
4.57721e-13
4.59189e-13
4.59618e-13
4.5951e-13
4.59402e-13
4.59391e-13
4.59406e-13
4.5941e-13
4.59409e-13
4.59408e-13
4.59408e-13
4.59408e-13
4.59408e-13
4.59408e-13
-1.71063e-26
-1.83431e-25
-2.11064e-25
5.88782e-25
2.5263e-24
2.35036e-24
-8.75724e-24
-3.26469e-23
-2.65957e-23
1.1335e-22
3.97371e-22
3.21656e-22
-1.28442e-21
-4.55894e-21
-4.16326e-21
1.25133e-20
4.88703e-20
5.46998e-20
-9.86272e-20
-4.79538e-19
-6.82906e-19
5.05411e-19
4.15068e-18
7.67599e-18
8.57591e-19
-2.95473e-17
-7.41376e-17
-6.04763e-17
1.43889e-16
5.79692e-16
8.63504e-16
-4.36602e-17
-3.24347e-15
-7.79247e-15
-7.81152e-15
7.48367e-15
4.48556e-14
8.67613e-14
7.10477e-14
-9.78338e-14
-4.6707e-13
-8.78919e-13
-8.26991e-13
4.74363e-13
3.57922e-12
7.81655e-12
1.02179e-11
5.30339e-12
-1.31189e-11
-4.75342e-11
-9.05348e-11
-1.19588e-10
-9.66633e-11
2.40999e-11
2.80581e-10
6.83115e-10
1.19927e-09
1.7515e-09
2.2321e-09
2.53292e-09
2.5795e-09
2.35668e-09
1.91461e-09
1.35268e-09
7.87515e-10
3.18024e-10
5.65572e-13
-1.5814e-10
-1.90743e-10
-1.48841e-10
-8.21137e-11
-2.45733e-11
9.28001e-12
2.03263e-11
1.71403e-11
9.01655e-12
2.05201e-12
-1.56624e-12
-2.31266e-12
-1.61701e-12
-6.79804e-13
-6.34075e-14
1.79338e-13
2.07413e-13
1.73107e-13
1.47882e-13
1.41674e-13
1.43633e-13
1.4562e-13
1.4601e-13
1.45788e-13
1.45656e-13
1.45661e-13
1.45683e-13
1.45686e-13
1.45683e-13
1.45682e-13
1.45682e-13
1.45682e-13
1.45682e-13
-1.17197e-25
-3.27838e-25
2.13746e-25
2.36463e-24
4.05806e-24
-4.28749e-24
-3.22475e-23
-4.90247e-23
6.38829e-23
4.0575e-22
5.84641e-22
-7.68027e-22
-4.72472e-21
-6.94811e-21
7.37125e-21
5.06266e-20
8.14135e-20
-4.96157e-20
-4.90641e-19
-9.13925e-19
6.12944e-20
4.15068e-18
9.45303e-18
4.62127e-18
-2.84285e-17
-8.59946e-17
-8.96508e-17
1.25521e-16
6.45167e-16
1.06547e-15
1.54914e-16
-3.51005e-15
-9.01114e-15
-9.49136e-15
7.89313e-15
5.10585e-14
9.85334e-14
7.66736e-14
-1.22056e-13
-5.36136e-13
-9.55357e-13
-7.87982e-13
7.86395e-13
4.16399e-12
8.24386e-12
9.5426e-12
2.55456e-12
-1.77032e-11
-5.10297e-11
-8.69641e-11
-1.02312e-10
-6.41063e-11
6.13104e-11
2.95729e-10
6.3819e-10
1.06085e-09
1.51368e-09
1.93585e-09
2.26882e-09
2.46673e-09
2.5021e-09
2.36823e-09
2.08028e-09
1.67514e-09
1.20827e-09
7.45147e-10
3.47632e-10
5.90628e-11
-1.05763e-10
-1.61261e-10
-1.42077e-10
-8.87668e-11
-3.44888e-11
2.30315e-12
1.78209e-11
1.77427e-11
1.06537e-11
3.27722e-12
-1.28339e-12
-2.89679e-12
-2.78848e-12
-2.18822e-12
-1.74635e-12
-1.58324e-12
-1.58108e-12
-1.61531e-12
-1.63355e-12
-1.63523e-12
-1.6324e-12
-1.63103e-12
-1.63109e-12
-1.63134e-12
-1.6314e-12
-1.63137e-12
-1.63135e-12
-1.63136e-12
-1.63136e-12
-1.63136e-12
-1.63136e-12
-1.63136e-12
-2.05839e-25
1.38397e-26
1.42792e-24
3.09131e-24
-1.2754e-24
-2.04291e-23
-3.89766e-23
2.45176e-23
2.67455e-22
4.76501e-22
-3.25538e-22
-3.21881e-21
-5.69983e-21
3.14091e-21
3.54843e-20
6.64405e-20
-1.69534e-20
-3.53214e-19
-7.41002e-19
-1.09142e-19
3.07688e-18
7.67599e-18
4.62127e-18
-2.19188e-17
-7.10088e-17
-7.73043e-17
1.04471e-16
5.5506e-16
9.12314e-16
4.93819e-17
-3.30914e-15
-8.10632e-15
-7.50006e-15
1.06698e-14
5.1753e-14
8.87454e-14
4.25094e-14
-1.8614e-13
-5.87863e-13
-8.50345e-13
-2.80788e-13
1.84749e-12
5.33319e-12
7.80805e-12
4.36387e-12
-1.03616e-11
-3.68576e-11
-6.38936e-11
-6.51277e-11
-5.66628e-12
1.37952e-10
3.49077e-10
5.48225e-10
5.95681e-10
3.31837e-10
-3.51205e-10
-1.43553e-09
-2.74115e-09
-3.95775e-09
-4.74354e-09
-4.85391e-09
-4.24162e-09
-3.07957e-09
-1.69401e-09
-4.39394e-10
4.26696e-10
8.14789e-10
7.98237e-10