/*--------------------------------*- C++ -*----------------------------------*\
  =========                 |
  \\      /  F ield         | OpenFOAM: The Open Source CFD Toolbox
   \\    /   O peration     | Website:  https://openfoam.org
    \\  /    A nd           | Version:  13
     \\/     M anipulation  |
\*---------------------------------------------------------------------------*/
FoamFile
{
    format      ascii;
    class       volScalarField;
    location    "2.3";
    object      T;
}
// * * * * * * * * * * * * * * * * * * * * * * * * * * * * * * * * * * * * * //

dimensions      [0 0 0 1 0 0 0];

internalField   nonuniform List<scalar> 
10000
(
0
0
0
0
0
0
0
0
0
0
0
0
0
0
0
0
0
0
0
0
0
0
0
0
0
0
0
0
0
0
0
0
0
0
0
0
0
0
0
0
0
0
0
0
0
0
0
0
0
0
0
0
0
0
0
0
0
0
0
0
0
0
0
0
0
0
0
0
0
0
0
0
0
0
0
0
0
0
0
0
0
0
0
0
0
0
0
0
0
0
0
0
0
0
0
0
0
0
0
0
0
0
0
0
0
0
0
0
0
0
0
0
0
0
0
0
0
0
0
0
0
0
0
0
0
0
0
0
0
0
0
0
0
0
0
0
0
0
0
0
0
0
0
0
0
0
0
0
0
0
0
0
0
0
0
0
0
0
0
0
0
0
0
0
0
0
0
0
0
0
0
0
0
0
0
0
0
0
0
0
0
0
0
0
0
0
0
0
0
0
0
0
0
0
0
0
0
0
0
0
0
0
0
0
0
0
0
0
0
0
0
0
0
0
0
0
0
0
0
0
0
0
0
0
0
0
0
0
0
0
0
0
0
0
0
0
0
0
0
0
0
0
0
0
0
0
0
0
0
0
0
0
0
0
0
0
0
0
0
0
0
0
0
0
0
0
0
0
0
0
0
0
0
0
0
0
0
0
0
0
0
0
0
0
0
0
0
0
0
0
0
0
0
0
0
0
0
0
0
0
0
0
0
0
0
0
0
0
0
0
0
0
0
0
0
0
0
0
0
0
0
0
0
0
0
0
0
0
0
0
0
0
0
0
0
0
0
0
0
0
0
0
0
0
0
0
0
0
0
0
0
0
0
0
0
0
0
0
0
0
0
0
0
0
0
0
0
0
0
0
0
0
0
0
0
0
0
0
0
0
0
0
0
0
0
0
0
0
0
0
0
0
0
0
0
0
0
0
0
0
0
0
0
0
0
0
0
0
0
0
0
0
0
0
0
0
0
0
0
0
0
0
0
0
0
0
0
0
0
0
0
0
0
0
0
0
0
0
0
0
0
0
0
0
0
0
0
0
0
0
0
0
0
0
0
0
0
0
0
0
0
0
0
0
0
0
0
0
0
0
0
0
0
0
0
0
0
0
0
0
0
0
0
0
0
0
0
0
0
0
0
0
0
0
0
0
0
0
0
0
0
0
0
0
0
0
0
0
0
0
0
0
0
0
0
0
0
0
0
0
0
0
0
0
0
0
0
0
0
0
0
0
0
0
0
0
0
0
0
0
0
0
0
0
0
0
0
0
0
0
0
0
0
0
0
0
0
0
0
0
0
0
0
0
0
0
0
0
0
0
0
0
0
0
0
0
0
0
0
0
0
0
0
0
0
0
0
0
0
0
0
0
0
0
0
0
0
0
0
0
0
0
0
0
0
0
0
0
0
0
0
0
0
0
0
0
0
0
0
0
0
0
0
0
0
0
0
0
0
0
0
0
0
0
0
0
0
0
0
0
0
0
0
0
0
0
0
0
0
0
0
0
0
0
0
0
0
0
0
0
0
0
0
0
0
0
0
0
0
0
0
0
0
0
0
0
0
0
0
0
0
0
0
0
0
0
0
0
0
0
0
0
0
0
0
0
0
0
0
0
0
0
0
0
0
0
0
0
0
0
0
0
0
0
0
0
0
0
0
0
0
0
0
0
0
0
0
0
0
0
0
0
0
0
0
0
0
0
0
0
0
0
0
0
0
0
0
0
0
0
0
0
0
0
0
0
0
0
0
0
0
0
0
0
0
0
0
0
0
0
0
0
0
0
0
0
0
0
0
0
0
0
0
0
0
0
0
0
0
0
0
0
0
0
0
0
0
0
0
0
0
0
0
0
0
0
0
0
0
0
0
0
0
0
0
0
0
0
0
0
0
0
0
0
0
0
0
0
0
0
0
0
0
0
0
0
0
0
0
0
0
0
0
0
0
0
0
0
0
0
0
0
0
0
0
0
0
0
0
0
0
0
0
0
0
0
0
0
0
0
0
0
0
0
0
0
0
0
0
0
0
0
0
0
0
0
0
0
0
0
0
0
0
0
0
0
0
0
0
0
0
0
0
0
0
0
0
0
0
0
0
0
0
0
0
0
0
0
0
0
0
0
0
0
0
0
0
0
0
0
0
0
0
0
0
0
0
0
0
0
0
0
0
0
0
0
0
0
0
0
0
0
0
0
0
0
0
0
0
0
0
0
0
0
0
0
0
0
0
0
0
0
0
0
0
0
0
0
0
0
0
0
0
0
0
0
0
0
0
0
0
0
0
0
0
0
0
0
0
0
0
0
0
0
0
0
0
0
0
0
0
0
0
0
0
0
0
0
0
0
0
0
0
0
0
0
0
0
0
0
0
0
0
0
0
0
0
0
0
0
0
0
0
0
0
0
0
0
0
0
0
0
0
0
0
0
0
0
0
0
0
0
0
0
0
0
0
0
0
0
0
0
0
0
0
0
0
0
0
0
0
0
0
0
0
0
0
0
0
0
0
0
0
0
0
0
0
0
0
0
0
0
0
0
0
0
0
0
0
0
0
0
0
0
0
0
0
0
0
0
0
0
0
0
0
0
0
0
0
0
0
0
0
0
0
0
0
0
0
0
0
0
0
0
0
0
0
0
0
0
0
0
0
0
0
0
0
0
0
0
0
0
0
0
0
0
0
0
0
0
0
0
0
0
0
0
0
0
0
0
0
0
0
0
0
0
0
0
0
0
0
0
0
0
0
0
0
0
0
0
0
0
0
0
0
0
0
0
0
0
0
0
0
0
0
0
0
0
0
0
0
0
0
0
0
0
0
0
0
0
0
0
0
0
0
0
0
0
0
0
0
0
0
0
0
0
0
0
0
0
0
0
0
0
0
0
0
0
0
0
0
0
0
0
0
0
0
0
0
0
0
0
0
0
0
0
0
0
0
0
0
0
0
0
0
0
0
0
0
0
0
0
0
0
0
0
0
0
0
0
0
0
0
0
0
0
0
0
0
0
0
0
0
0
0
0
0
0
0
0
0
0
0
0
0
0
0
0
0
0
0
0
0
0
0
0
0
0
0
0
0
0
0
0
0
0
0
0
0
0
0
0
0
0
0
0
0
0
0
0
0
0
0
0
0
0
0
0
0
0
0
0
0
0
0
0
0
0
0
0
0
0
0
0
0
0
0
0
0
0
0
0
0
0
0
0
0
0
0
0
0
0
0
0
0
0
0
0
0
0
0
0
0
0
0
0
0
0
0
0
0
0
0
0
0
0
0
0
0
0
0
0
0
0
0
0
0
0
0
0
0
0
0
0
0
0
0
0
0
0
0
0
0
0
0
0
0
0
0
0
0
0
0
0
0
0
0
0
0
0
0
0
0
0
0
0
0
0
0
0
0
0
0
0
0
0
0
0
0
0
0
0
0
0
0
0
0
0
0
0
0
0
0
0
0
0
0
0
0
0
0
0
0
0
0
0
0
0
0
0
0
0
0
0
0
0
0
0
0
0
0
0
0
0
0
0
0
0
0
0
0
0
0
0
0
0
0
0
0
0
0
0
0
0
0
0
0
0
0
0
0
0
0
0
0
0
0
0
0
0
0
0
0
0
0
0
0
0
0
0
0
0
0
0
0
0
0
0
0
0
0
0
0
0
0
0
0
0
0
0
0
0
0
0
0
0
0
0
0
0
0
0
0
0
0
0
0
0
0
0
0
0
0
0
0
0
0
0
0
0
0
0
0
0
0
0
0
0
0
0
0
0
0
0
0
0
0
0
0
0
0
0
0
0
0
0
0
0
0
0
0
0
0
0
0
0
0
0
0
0
0
0
0
0
0
0
0
0
0
0
0
0
0
0
0
0
0
0
0
0
0
0
0
0
0
0
0
0
0
0
0
0
0
0
0
0
0
0
0
0
0
0
0
0
0
0
0
0
0
0
0
0
0
0
0
0
0
0
0
0
0
0
0
0
0
0
0
0
0
0
0
0
0
0
0
0
0
0
0
0
0
0
0
0
0
0
0
0
0
0
0
0
0
0
0
0
0
0
0
0
0
0
0
0
0
0
0
0
0
0
0
0
0
0
0
0
0
0
0
0
0
0
0
0
0
0
0
0
0
0
0
0
0
0
0
0
0
0
0
0
0
0
0
0
0
0
0
0
0
0
0
0
0
0
0
0
0
0
0
0
0
0
0
0
0
0
0
0
0
0
0
0
0
0
0
0
0
0
0
0
0
0
0
0
0
0
0
0
0
0
0
0
0
0
0
0
0
0
0
0
0
0
0
0
0
0
0
0
0
0
0
0
0
0
0
0
0
0
0
0
0
0
0
0
0
0
0
0
0
0
0
0
0
0
0
0
0
0
0
0
0
0
0
0
0
0
0
0
0
0
0
0
0
0
0
0
0
0
0
0
0
0
0
0
0
0
0
0
0
0
0
0
0
0
0
0
0
0
0
0
0
0
0
0
0
0
0
0
0
0
0
0
0
0
0
0
0
0
0
0
0
0
0
0
0
0
0
0
0
0
0
0
0
0
0
0
0
0
0
0
0
0
0
0
0
0
0
0
0
0
0
0
0
0
0
0
0
0
0
0
0
0
0
0
0
0
0
0
0
0
0
0
0
0
0
0
0
0
0
0
0
0
0
0
0
0
0
0
0
0
0
0
0
0
0
0
0
0
0
0
0
0
0
0
0
0
0
0
0
0
0
0
0
0
0
0
0
0
0
0
0
0
0
0
0
0
0
0
0
0
0
0
0
0
0
0
0
0
0
0
0
0
0
0
0
0
0
0
0
0
0
0
0
0
0
0
0
0
0
0
0
0
0
0
0
0
0
0
0
0
0
0
0
0
0
0
0
0
0
0
0
0
0
0
0
0
0
0
0
0
0
0
0
0
0
0
0
0
0
0
0
0
0
0
0
0
0
0
0
0
0
0
0
0
0
0
0
0
0
0
0
0
0
0
0
0
0
0
0
0
0
0
0
0
0
0
0
0
0
0
0
0
0
0
0
0
0
0
0
0
0
0
0
0
0
0
0
0
0
0
0
0
0
0
0
0
0
0
0
0
0
0
0
0
0
0
0
0
0
0
0
0
0
0
0
0
0
0
0
0
0
0
0
0
0
0
0
0
0
0
0
0
0
0
0
0
0
0
0
0
0
0
0
0
0
0
0
0
0
0
0
0
0
0
0
0
0
0
0
0
0
0
0
0
0
0
0
0
0
0
0
0
0
0
0
0
0
0
0
0
0
0
0
0
0
0
0
0
0
0
0
0
0
0
0
0
0
0
0
0
0
0
0
0
0
0
0
0
0
0
0
0
0
0
0
0
0
0
0
0
0
0
0
0
0
0
0
0
0
0
0
0
0
0
0
0
0
0
0
0
0
0
0
0
0
0
0
0
0
0
0
0
0
0
0
0
0
0
0
0
0
0
0
0
0
0
0
0
0
0
0
0
0
0
0
0
0
0
0
0
0
0
0
0
0
0
0
0
0
0
0
0
0
0
0
0
0
0
0
0
0
0
0
0
0
0
0
0
0
0
0
0
0
0
0
-2.86558e-322
-1.95848e-320
2.43881e-319
-1.88339e-318
4.66785e-318
-2.26702e-319
-2.01094e-318
4.23329e-318
-9.62602e-317
5.8521e-316
-2.02237e-315
3.61465e-315
-8.33746e-315
-1.0202e-314
-2.56772e-316
2.46573e-314
-1.46959e-313
8.82236e-313
1.35315e-314
-2.52481e-313
-9.47297e-313
-1.14825e-312
1.17388e-313
1.57413e-312
1.6444e-312
-2.1225e-312
-1.1336e-312
3.10115e-313
8.46981e-313
6.0283e-313
-5.80885e-313
5.079e-312
-1.51374e-312
-2.75301e-312
-1.03346e-312
-3.05821e-312
1.50128e-312
1.9155e-312
7.50364e-313
-3.2168e-313
3.63919e-313
1.8153e-313
-6.71659e-313
-1.61303e-314
-8.71489e-313
9.66291e-313
-4.01334e-314
-3.72726e-313
3.51113e-313
-2.66895e-314
-5.70269e-314
-1.52724e-313
8.49592e-314
1.27325e-314
2.18252e-314
2.69018e-315
-5.80914e-315
6.21174e-316
-3.78329e-315
-1.69332e-315
-1.48271e-317
3.35682e-316
6.68385e-316
-1.92044e-316
-1.72271e-316
0
0
0
0
0
0
0
0
0
0
-8.73014e-321
3.44957e-320
-6.73016e-320
5.23329e-319
1.98269e-320
-2.96084e-318
4.63767e-318
-1.78304e-317
7.8826e-317
-5.78416e-316
2.09524e-315
1.30996e-315
-7.71485e-314
7.72534e-313
-6.91451e-312
5.01019e-311
-2.26149e-310
9.64102e-310
-6.63545e-309
3.16424e-308
-1.07694e-307
1.49278e-307
-7.11998e-307
-1.17294e-306
2.1046e-305
-1.00882e-304
1.40104e-304
-3.2189e-304
-8.00718e-304
2.08606e-303
4.55552e-304
-9.4886e-304
2.0948e-303
-2.5922e-302
1.57674e-301
-5.63891e-301
1.05853e-300
2.31299e-300
-5.37442e-299
4.09654e-298
-6.45301e-298
-4.37089e-298
3.36089e-298
4.77268e-298
2.49171e-298
7.5393e-300
-2.89595e-298
-3.69911e-298
2.35491e-298
3.91582e-298
-2.82934e-298
-1.15699e-297
4.74299e-297
-8.97502e-298
-5.34166e-297
-2.61454e-297
2.72938e-297
3.91127e-297
1.10095e-297
-6.25433e-298
-1.89307e-297
-1.46842e-297
9.32356e-299
1.42718e-297
8.06256e-298
-7.29451e-298
-2.15197e-298
-2.89134e-298
-3.073e-298
1.74851e-298
7.42253e-298
3.33566e-298
-2.05094e-298
-2.34311e-298
-1.45842e-298
-1.0602e-298
6.74216e-299
6.4904e-299
2.5141e-299
-1.26373e-299
-1.34723e-299
-7.08977e-302
4.44371e-300
2.00839e-300
-5.35295e-302
-5.31773e-301
-4.5578e-301
4.23141e-301
-1.75909e-301
-1.21375e-301
6.15957e-315
-4.27924e-314
2.61429e-313
-1.26136e-312
1.28104e-311
-5.35023e-311
5.109e-310
-5.21344e-309
1.37425e-308
-4.67018e-307
2.92569e-306
-2.64938e-305
1.22642e-304
-5.39539e-304
7.37182e-305
1.08202e-303
-8.07636e-304
7.70723e-303
-4.62659e-302
2.24905e-301
-6.77587e-301
3.81817e-300
-9.31404e-300
-4.9119e-299
1.00101e-297
-9.69504e-297
7.72566e-296
-3.52162e-295
1.57701e-294
-1.05683e-293
2.68093e-293
-1.47541e-292
5.4029e-292
-1.43155e-291
-9.45094e-293
2.93501e-290
-9.09691e-290
8.45496e-292
7.27706e-289
-5.23574e-289
-3.2707e-289
-1.38479e-288
2.40873e-288
6.81076e-288
-1.70801e-287
5.12809e-287
5.09727e-287
-3.15562e-285
2.88194e-284
-1.51228e-283
1.6099e-283
1.72777e-283
1.47506e-284
-1.20543e-283
-1.37458e-283
-6.17997e-284
-5.58094e-284
5.58819e-283
-4.39841e-284
-3.06133e-283
-1.41465e-283
7.33901e-283
-2.91618e-282
-5.6848e-283
1.32969e-282
1.54064e-282
7.30089e-283
-2.57122e-283
-4.72994e-283
-2.86363e-283
-1.46025e-284
1.54568e-283
3.72597e-283
-2.16749e-283
-2.85899e-283
7.38676e-284
-1.78454e-283
1.57922e-284
2.83476e-283
2.31311e-283
-1.97797e-284
-7.75374e-284
-8.13222e-284
-3.46162e-284
-4.65445e-286
3.09595e-284
7.63104e-285
-5.08003e-285
-7.52748e-285
-1.83606e-287
3.15894e-285
1.50587e-285
-8.05238e-288
-4.15438e-286
-2.54618e-286
-5.73189e-287
7.28232e-287
-3.79942e-286
-1.08358e-286
3.44263e-286
-1.44493e-300
2.45624e-299
-1.65858e-298
1.71411e-297
-9.21943e-297
9.07643e-296
-9.24476e-295
4.29712e-294
-3.95727e-293
1.94257e-292
-1.7341e-291
6.81981e-291
-5.71487e-290
5.0521e-289
-2.88064e-289
7.36855e-289
-1.5457e-289
-2.06943e-288
1.33155e-287
-1.00635e-286
7.19724e-286
-1.02439e-285
4.46118e-285
-1.78172e-284
-6.0982e-286
9.43509e-283
-1.3663e-281
9.96656e-281
-7.06824e-280
4.75737e-279
-3.01643e-278
3.29896e-278
-1.48977e-277
7.67732e-277
-3.25132e-276
1.11585e-275
1.12886e-275
5.37707e-275
-5.47961e-274
5.104e-274
4.22787e-274
5.62485e-274
1.3344e-274
-1.07924e-272
1.40023e-272
3.65351e-273
-1.2237e-271
1.12584e-270
-6.18026e-270
1.74779e-269
8.01347e-272
-6.83419e-269
-3.89333e-268
2.00212e-268
3.69393e-268
2.10901e-268
-4.67777e-269
-2.46319e-268
-1.59169e-268
8.81449e-268
-9.0018e-268
-7.78621e-268
4.89952e-268
1.29332e-267
-2.33461e-267
3.15592e-267
-9.05226e-268
4.69278e-269
-1.25811e-269
4.57703e-268
-3.55941e-268
-6.1697e-268
-3.40533e-268
-8.31967e-269
8.52069e-269
-3.83133e-268
2.22452e-268
2.0009e-268
5.95338e-269
-2.01604e-269
-2.19165e-269
-2.907e-269
-5.40424e-270
5.48682e-270
6.57831e-270
-3.88772e-270
-1.84263e-270
2.15161e-270
2.66266e-270
1.30524e-270
8.2081e-272
-1.46961e-270
1.03028e-270
3.42256e-271
-1.79464e-271
-1.21585e-271
-8.1017e-271
3.13965e-271
3.12554e-271
7.43928e-272
1.66973e-285
-1.25136e-284
1.1108e-283
-9.98978e-283
8.71388e-282
-7.19919e-281
5.52933e-280
-3.79672e-279
2.09759e-278
-1.90453e-277
1.03238e-276
-8.95819e-276
7.90256e-275
-4.55632e-274
1.95935e-273
-7.99122e-274
1.32442e-273
-1.46531e-272
1.23543e-272
6.60527e-272
-4.37053e-271
2.90125e-270
-1.85256e-269
8.2277e-269
-2.6375e-268
7.6802e-269
2.95976e-267
-6.36321e-266
4.62322e-265
-3.10314e-264
1.64396e-263
-9.05652e-263
3.46147e-262
-1.20301e-261
2.5291e-261
-3.62022e-261
-7.97087e-261
9.36794e-260
-3.24093e-259
1.86316e-260
6.82524e-259
-3.39128e-258
9.75486e-258
8.06734e-258
6.17744e-259
-8.07102e-258
1.22001e-257
-1.26938e-256
4.38661e-256
-3.97494e-256
-8.26756e-255
7.36929e-254
-2.01561e-253
-7.25312e-254
2.28873e-253
1.95951e-253
-2.48208e-254
1.3541e-253
-1.00939e-253
-9.1566e-253
-2.67751e-253
1.27749e-253
2.1623e-252
2.13371e-252
-1.9532e-252
-3.82774e-252
-8.5828e-253
1.0415e-252
2.31095e-252
1.9851e-252
-3.45182e-253
-1.16652e-252
-1.05055e-252
-2.38224e-253
1.8711e-253
3.43414e-253
1.94528e-253
3.10609e-254
-5.91937e-254
-5.08463e-254
-2.02205e-254
-3.47819e-256
3.60428e-254
-1.45371e-254
-1.364e-254
-6.25375e-256
-5.93888e-255
1.19183e-254
3.18133e-255
-2.37916e-255
-5.35889e-256
2.01497e-255
-2.65163e-255
-2.29835e-255
-1.07375e-255
2.16045e-256
5.90382e-256
4.08005e-256
-1.26623e-257
-7.94585e-257
1.98372e-271
2.86662e-270
-1.77006e-269
1.742e-268
-1.77448e-267
1.76823e-266
-1.72837e-265
1.6562e-264
-1.55503e-263
8.1356e-263
-7.04471e-262
6.22111e-261
-2.51468e-260
1.99586e-259
-1.64575e-258
1.31453e-257
-4.76072e-257
1.03519e-257
1.52144e-257
-3.49155e-258
8.00581e-257
-5.0951e-256
3.23485e-255
-1.9448e-254
1.09819e-253
-5.72995e-253
2.68073e-252
-1.05031e-251
-4.17136e-251
3.28869e-250
-2.19508e-249
1.30508e-248
-2.93357e-248
9.71372e-248
-2.36095e-247
-3.43272e-247
8.6948e-246
-3.35721e-245
1.80849e-244
-2.27167e-244
6.11713e-244
8.45162e-244
-8.79474e-244
-1.99737e-242
7.59881e-242
-1.98748e-241
5.34407e-241
-5.71358e-241
-9.6191e-241
-4.90243e-241
3.96416e-240
-1.63331e-239
4.74602e-239
7.35924e-239
-2.90466e-239
4.57442e-239
-1.5247e-238
-1.78704e-238
-4.77528e-238
5.67137e-238
9.63614e-238
5.36904e-238
-7.03401e-238
-1.25763e-237
-4.11914e-238
3.093e-238
6.95827e-238
4.28518e-238
1.61212e-238
-3.39452e-238
-3.19671e-238
-1.06051e-238
5.61678e-240
8.70606e-239
6.68537e-239
2.30125e-239
-4.35321e-240
-1.07352e-239
-6.7765e-240
-1.88913e-240
7.33222e-241
-2.48553e-240
2.79052e-239
-8.16253e-240
-8.26933e-240
-1.74531e-239
-3.60037e-240
4.13116e-240
8.5601e-240
3.12665e-240
-7.41567e-241
-1.35551e-240
-1.13519e-240
-1.64302e-242
3.05186e-241
2.06482e-241
5.72212e-242
-1.8768e-242
-1.18595e-242
8.18688e-243
4.81616e-256
-1.63958e-255
1.2518e-254
-4.26932e-254
-4.42551e-253
1.08171e-251
-1.06926e-250
9.22929e-250
-6.938e-249
6.18136e-248
-4.18919e-247
3.19236e-246
-2.37847e-245
1.45529e-244
-9.522e-244
6.15588e-243
-3.72389e-242
1.70547e-241
-4.76627e-241
1.9072e-240
-9.74477e-240
4.44073e-239
-1.57736e-238
-4.57203e-238
1.92037e-238
1.46918e-238
2.52756e-237
-7.74669e-237
-1.05253e-237
1.05148e-235
-7.86836e-235
4.38212e-234
-2.28172e-233
7.98252e-233
-2.18987e-232
-4.11395e-232
3.82072e-231
-1.97668e-230
6.67472e-230
-1.3279e-229
1.60735e-229
2.77935e-229
-5.16612e-229
-3.4432e-228
1.13121e-227
-2.28395e-227
3.23747e-227
7.75566e-227
-1.20485e-225
1.74964e-224
-9.72888e-225
-3.32432e-224
4.89182e-227
2.47367e-224
8.8588e-225
6.03352e-224
5.53347e-224
-9.79417e-224
-2.20664e-223
-1.10205e-223
1.79874e-223
2.62347e-223
1.86696e-223
-9.1308e-224
-1.99306e-223
-2.16988e-223
-2.43202e-224
8.12544e-224
1.31436e-223
8.00291e-224
3.65929e-225
-3.48002e-224
-1.92967e-224
-3.70284e-224
-2.07585e-224
-1.32645e-224
7.8967e-225
7.76874e-224
-2.44818e-225
-3.42861e-224
-3.48646e-224
-5.19928e-225
1.65077e-224
1.29595e-224
7.29902e-225
8.10277e-226
-6.48373e-225
-3.62782e-225
-5.01457e-226
1.02108e-225
1.21809e-225
3.87747e-226
-1.86519e-226
-3.14079e-226
-1.48602e-226
-2.63046e-227
6.93194e-227
1.07788e-226
3.53809e-227
-3.012e-227
-3.11763e-241
9.36418e-241
-9.32052e-240
9.32298e-239
-6.88091e-238
1.26063e-238
1.79716e-236
-1.70727e-235
1.53359e-234
-1.41821e-233
8.09764e-233
-6.63852e-232
5.4648e-231
-4.37437e-230
2.71983e-229
-2.04002e-228
1.13819e-227
-8.03142e-227
2.73542e-226
-6.5638e-226
4.07949e-225
-2.5824e-224
1.54793e-223
6.01291e-223
-1.18283e-223
-8.97674e-224
-1.24854e-222
7.36972e-222
-1.36964e-222
-1.87905e-221
1.33136e-220
-8.6316e-220
4.81004e-219
-2.56733e-218
4.10967e-218
-4.09913e-218
-1.36225e-216
4.01939e-216
-1.08766e-215
2.4055e-215
-7.34348e-217
-3.72122e-214
6.45619e-214
-8.30452e-214
9.68344e-214
-2.59983e-213
-6.82157e-212
3.07622e-211
1.05277e-210
-2.90109e-210
-2.12634e-210
1.17603e-209
-4.71328e-210
-1.8341e-210
1.85266e-209
-2.33332e-209
-6.36911e-209
-1.90993e-209
5.67266e-209
9.34194e-209
5.62248e-209
-3.53552e-209
-7.65239e-209
-6.73811e-209
-3.306e-209
3.7148e-209
3.12898e-209
4.6695e-209
6.27423e-210
-1.11607e-209
-2.23377e-210
-1.01305e-209
-1.7768e-209
-4.47657e-211
3.51766e-210
2.82494e-209
1.52487e-209
-3.20148e-209
-1.44155e-209
1.49439e-210
7.65274e-211
6.84041e-210
4.9811e-210
3.00336e-210
-2.85754e-210
-2.50134e-210
-3.74666e-211
-1.00658e-211
4.21002e-211
2.70943e-211
-6.20093e-212
-5.70816e-212
-9.2273e-212
5.84181e-213
1.04352e-212
6.4139e-212
4.86958e-212
-5.93141e-214
-2.80175e-212
-1.06812e-212
-2.15693e-226
9.74187e-226
-6.60689e-225
5.03428e-224
-4.77759e-223
3.65732e-222
-2.57142e-221
9.18344e-221
-1.48856e-220
-9.34585e-219
1.26772e-217
-6.95248e-217
2.5228e-216
-1.55755e-215
1.5189e-214
-8.31005e-214
3.49128e-213
-2.13855e-212
2.48547e-211
-9.29296e-211
4.75529e-210
-2.4293e-209
1.67673e-208
-7.58441e-208
3.92555e-207
-1.17376e-206
1.8692e-206
1.03403e-206
2.70318e-205
3.40322e-205
-1.99056e-205
-5.07771e-206
8.65536e-205
8.10207e-204
-8.22632e-203
1.84491e-202
-2.64412e-203
-4.29364e-202
6.28372e-201
-1.70664e-200
1.8884e-200
-1.8604e-199
2.66748e-199
-5.41035e-199
2.19778e-198
-1.60034e-197
3.91188e-197
4.91897e-197
-9.63668e-196
2.48588e-195
1.02066e-195
-6.84369e-195
-3.68998e-195
6.93392e-195
1.14747e-194
3.69974e-195
-8.36885e-195
-1.35695e-194
-7.29786e-195
2.40602e-195
1.3284e-194
8.35842e-195
1.40806e-194
5.0418e-196
-1.82069e-194
1.31609e-194
-3.00558e-194
1.27132e-194
-5.54756e-195
-5.34783e-195
1.28082e-194
7.25287e-195
-9.41016e-195
-1.23052e-194
-1.04323e-194
3.18827e-194
-1.66159e-194
-5.60843e-195
8.67847e-195
5.68707e-195
-1.59657e-194
4.79056e-195
9.25852e-195
3.79849e-195
7.20228e-196
-3.34583e-195
-1.75765e-195
-2.72054e-196
1.16871e-196
6.63286e-196
-2.44533e-197
-4.69259e-197
-2.43324e-197
-7.61168e-197
-1.13451e-196
-2.63296e-197
3.21065e-197
2.65717e-197
8.75768e-198
-1.78021e-198
-6.37228e-212
3.57166e-211
-2.8859e-210
2.73618e-209
-1.88662e-208
1.70606e-207
-1.54093e-206
1.3596e-205
-1.17308e-204
9.88998e-204
-8.14107e-203
6.53764e-202
7.24276e-202
-7.60229e-201
-6.84888e-200
5.30905e-199
-5.03667e-199
2.36032e-197
-1.6064e-196
1.90791e-196
-9.83559e-196
-6.43626e-195
3.74321e-194
-5.65964e-195
-1.64598e-192
7.40178e-192
-1.91453e-191
6.864e-191
-1.74819e-190
-1.5771e-190
-5.40486e-191
-6.65534e-190
4.31565e-189
1.10744e-188
-2.8315e-188
-2.51425e-189
4.09768e-187
-1.86101e-186
3.75436e-186
-1.26706e-185
1.95559e-185
-1.25152e-184
1.38844e-184
4.04951e-184
-4.56465e-183
1.4292e-182
-2.38083e-183
-8.6913e-182
4.90315e-181
-7.18671e-181
-1.23268e-180
2.57819e-180
1.08712e-180
4.92386e-181
-1.92787e-180
-7.20215e-180
1.61792e-180
6.86804e-180
1.30842e-179
-9.393e-180
-3.1262e-180
1.59153e-179
-1.16751e-179
-3.0442e-179
-2.19569e-179
1.26579e-179
2.81223e-179
2.81847e-179
5.55274e-180
-1.04469e-179
-1.30863e-179
-1.23391e-179
-2.78264e-180
3.16955e-180
9.09961e-180
-1.55155e-179
2.07997e-179
1.48769e-179
-1.60981e-179
-1.24051e-179
8.57073e-180
-7.32781e-180
7.63458e-180
-1.06191e-180
-1.65618e-180
-4.89818e-181
-7.74828e-181
4.38791e-181
7.78488e-181
-3.26137e-181
-3.45166e-181
1.19052e-181
1.90331e-181
9.05219e-182
1.1407e-182
-1.25827e-182
-8.87939e-183
-1.61231e-183
-5.50069e-184
1.40258e-183
2.8041e-197
-1.51247e-196
1.47748e-195
-1.55082e-194
1.17871e-193
-1.42096e-192
1.27113e-191
-1.09558e-190
1.24331e-189
-7.61172e-189
8.27241e-188
-6.57665e-187
2.76703e-186
-2.76756e-185
1.51901e-184
-7.10985e-184
4.74253e-183
-1.92454e-182
1.83043e-181
-7.9763e-181
2.77972e-180
-1.52754e-179
4.1888e-179
-3.77353e-178
1.12486e-177
-2.35394e-177
8.74533e-177
-5.99956e-177
2.15517e-176
2.32834e-175
-6.85998e-175
-1.36298e-174
7.22417e-174
-2.42655e-173
-1.35137e-173
-2.85052e-173
2.1186e-172
-8.53024e-172
2.37248e-171
-1.09324e-171
-2.21245e-170
3.09465e-170
-1.20359e-170
-1.67987e-169
1.60501e-168
-1.54447e-168
-4.25268e-168
2.92299e-167
-1.17188e-166
1.25411e-166
8.58171e-166
-3.77981e-166
-1.22389e-165
-1.31135e-165
1.36693e-165
5.03456e-165
1.5429e-165
-5.25378e-165
-9.80188e-165
-2.62945e-165
6.31106e-165
1.23654e-164
7.25353e-165
-2.51194e-165
-8.90353e-165
-8.26263e-165
-2.82206e-165
2.5224e-165
4.56092e-165
3.99926e-165
-6.57852e-165
4.64338e-164
-5.11092e-164
6.4197e-165
-4.31855e-164
-1.90639e-165
1.40375e-164
2.72616e-164
2.28741e-164
3.951e-165
-1.47082e-164
-1.33123e-164
1.97552e-165
2.78964e-165
3.74322e-165
1.46539e-165
-1.20084e-165
-1.48031e-165
-7.11823e-166
5.196e-167
3.15091e-166
1.69915e-166
-8.02825e-168
-1.86966e-167
-2.21334e-167
-4.55371e-168
4.36846e-168
1.04699e-168
1.76328e-168
7.83839e-169
-1.3381e-183
9.77819e-183
-3.72702e-181
5.81973e-180
-8.38636e-179
9.30768e-178
-8.12461e-177
7.19186e-176
-6.21551e-175
5.1175e-174
-3.68174e-173
2.52571e-172
-1.77721e-171
1.14856e-170
-7.50465e-170
4.7392e-169
-2.68398e-168
1.44952e-167
-7.47072e-167
4.00912e-166
-2.04594e-165
8.75999e-165
-3.91523e-164
1.39347e-163
-5.14555e-163
1.62732e-162
-3.88662e-162
4.27923e-162
2.51282e-161
-2.13913e-160
1.0783e-159
-4.05154e-159
1.28246e-158
-1.84953e-158
2.47169e-158
3.65703e-158
-2.69085e-157
9.40986e-157
-1.19975e-156
-1.50573e-156
1.19209e-155
-3.39108e-155
3.28326e-155
1.96178e-154
-9.54807e-154
1.74406e-153
2.4896e-153
-3.12149e-152
7.12011e-152
7.98264e-152
-4.80735e-151
-5.40406e-152
6.96846e-151
7.66236e-151
-1.44952e-151
-1.46325e-150
-1.70994e-150
7.04514e-152
1.98925e-150
2.85847e-150
2.20511e-150
-1.85274e-150
-1.33373e-150
-2.60865e-150
-3.08154e-150
-4.23667e-150
-1.28622e-149
-1.13933e-149
3.99527e-149
4.80258e-149
1.16889e-149
-3.50139e-149
-7.12933e-149
-3.14099e-149
1.93386e-149
4.22403e-149
3.02023e-149
7.16219e-150
-1.44599e-149
-1.53451e-149
-5.54808e-150
2.60346e-150
4.13663e-150
1.89115e-150
-2.49774e-151
-1.05605e-150
-6.4716e-151
-3.72677e-152
1.89554e-151
1.31764e-151
1.45888e-151
-8.64285e-152
-6.18258e-152
-1.88074e-152
1.51946e-152
1.54857e-152
6.74171e-153
-2.44804e-153
-3.8434e-153
-9.91544e-154
-3.53432e-167
2.98284e-167
-2.44484e-166
2.23662e-165
-1.95878e-164
4.92949e-164
-3.60725e-163
2.96186e-162
-2.33806e-161
-3.79636e-160
3.10438e-159
-2.08589e-158
1.50419e-157
-1.15351e-156
7.88429e-156
-4.76142e-155
2.74447e-154
-1.50829e-153
7.85203e-153
-4.41105e-152
2.36713e-151
-1.04225e-150
4.93456e-150
-1.82247e-149
7.12499e-149
-2.32659e-148
3.85779e-148
4.33941e-148
-9.91174e-147
5.20194e-146
-2.69037e-145
7.47272e-145
-2.61504e-144
3.51982e-144
-5.50394e-144
-1.58419e-143
6.15124e-143
-2.76828e-142
1.56688e-142
4.8583e-142
-2.18645e-141
5.08631e-141
-7.50536e-141
-3.21781e-140
8.28941e-140
-9.79678e-140
-2.61495e-139
3.25862e-138
-5.49718e-138
-1.92606e-137
4.88434e-137
4.8016e-137
-7.68851e-137
-5.91779e-137
-7.38308e-137
-1.00099e-137
1.38016e-136
4.51103e-137
2.05942e-136
1.10585e-136
-3.19401e-136
-2.92487e-138
-1.24314e-135
-1.28801e-135
-4.1604e-136
3.45545e-136
1.01987e-134
1.43187e-134
-7.37613e-136
-1.67359e-134
-2.12896e-134
-9.9184e-135
7.9337e-135
1.56943e-134
1.161e-134
2.64342e-135
-4.74252e-135
-5.09439e-135
-2.48711e-135
-1.40497e-136
9.01438e-136
6.58594e-136
5.86999e-137
-1.74954e-136
-1.47303e-136
-4.64546e-137
2.63971e-137
3.42691e-137
1.38916e-137
1.2336e-137
-6.79976e-137
6.651e-138
2.34162e-137
1.54722e-137
4.70769e-138
-7.0004e-139
-1.5399e-138
-7.57305e-139
-8.60879e-140
1.15473e-139
-1.68552e-152
7.99011e-152
3.35037e-151
-3.41312e-150
-2.67216e-149
2.47318e-148
-2.01114e-147
1.61256e-146
-1.26036e-145
-1.80918e-146
4.66284e-145
-3.03932e-144
2.15745e-143
-1.47217e-142
9.7288e-142
-6.21123e-141
3.82208e-140
-2.26039e-139
1.28018e-138
-6.91099e-138
3.53389e-137
-1.69618e-136
7.53468e-136
-3.02219e-135
1.03949e-134
-2.63508e-134
1.07565e-134
4.33217e-133
-3.71712e-132
2.14004e-131
-9.906e-131
2.77087e-130
-8.58464e-130
1.88446e-129
2.5388e-131
-1.05258e-128
3.71473e-128
-9.7286e-128
9.23371e-129
4.31114e-127
-1.04888e-126
1.3169e-126
3.3927e-127
-8.40545e-126
9.98042e-126
-4.9012e-125
4.72904e-125
-4.17195e-124
3.84454e-124
7.56952e-123
-7.99328e-123
-2.38243e-122
5.39645e-123
4.25184e-122
3.74169e-122
-3.66578e-122
-4.23332e-122
-1.52335e-121
-8.70126e-122
6.22184e-122
5.94211e-121
6.04109e-121
3.59734e-121
-2.01062e-120
-3.8056e-120
-2.94455e-120
2.50111e-120
8.06373e-120
7.77398e-120
1.31174e-120
-4.99939e-120
-6.60108e-120
-4.28975e-120
-8.05494e-121
1.47966e-120
1.89736e-120
1.16283e-120
2.9267e-121
-1.63102e-121
-2.06917e-121
-8.25925e-122
1.69139e-122
3.98181e-122
1.98561e-122
-1.40401e-123
-8.30659e-123
-5.31471e-123
-7.27332e-124
2.65325e-124
7.52412e-123
-3.30551e-122
7.1363e-122
8.8491e-122
1.46061e-121
-1.34747e-121
-1.14513e-121
-9.03829e-122
1.67227e-122
3.14403e-122
1.12185e-122
-6.84444e-137
2.40513e-136
-1.48922e-135
1.25429e-134
-8.98706e-134
6.76851e-133
-4.99988e-132
3.24371e-131
-2.20236e-130
1.44366e-129
-1.03813e-128
5.46656e-128
-2.36462e-127
1.53656e-126
-4.47641e-126
2.6562e-125
-1.01657e-124
5.74925e-124
-3.19599e-123
1.33469e-122
-4.91783e-122
1.50351e-121
-6.83508e-121
2.88292e-120
-5.18392e-120
1.93857e-120
-1.26657e-119
2.29698e-118
-1.45278e-117
6.19952e-117
-2.32789e-116
7.21849e-116
-1.46785e-115
1.79389e-115
4.19869e-115
-3.28407e-114
1.4172e-113
-2.38523e-113
-2.5187e-113
2.84798e-112
-8.59672e-112
7.32015e-112
3.32275e-111
-1.17606e-110
1.89703e-110
2.85548e-110
-2.01077e-109
2.86205e-109
5.52868e-109
-1.96311e-108
1.35944e-109
6.03104e-108
1.13106e-108
-1.43823e-107
-2.24765e-107
2.87636e-107
8.87851e-107
3.14806e-107
-1.59698e-106
-2.69354e-106
-5.1872e-107
3.9876e-106
5.91682e-106
4.69749e-107
-7.46761e-106
-1.71372e-105
-1.04379e-105
4.08721e-106
1.63946e-105
7.02283e-106
7.66097e-106
7.06284e-105
-1.65564e-106
-4.66068e-105
-7.19574e-105
-3.31057e-105
2.1694e-105
5.27527e-105
3.53999e-105
-6.22825e-106
-3.59933e-105
-1.23944e-105
2.88645e-105
2.20765e-105
2.56182e-106
-1.99361e-105
-2.53997e-105
-5.03291e-106
9.77943e-107
1.28729e-105
6.92096e-106
1.93293e-106
-2.53031e-106
-2.48097e-106
-1.162e-106
-1.11359e-107
6.17392e-107
4.60971e-107
1.33266e-107
-8.50074e-108
1.72659e-122
-7.59778e-122
4.36721e-121
-3.5719e-120
1.2467e-119
-9.3552e-119
7.38817e-118
-5.63898e-117
4.19382e-116
-5.74517e-115
4.1205e-114
-1.47491e-113
9.4223e-113
-6.08469e-112
2.2648e-111
-1.3273e-110
2.77023e-110
-1.46683e-109
7.92506e-109
-3.98857e-108
1.90476e-107
-8.52687e-107
3.53339e-106
-1.32584e-105
4.31331e-105
-5.08877e-105
2.75594e-105
-3.96712e-105
1.1683e-103
-4.27275e-103
1.63512e-102
-4.90801e-102
1.08331e-101
-9.5682e-102
-6.35725e-101
1.16047e-100
-1.36488e-99
7.11382e-100
6.02087e-99
-3.84211e-98
1.0284e-97
1.6861e-99
-5.75264e-97
1.34224e-96
-7.89376e-99
-6.44013e-96
2.18973e-95
-1.67096e-95
-1.56878e-94
4.64734e-94
5.20561e-94
-2.19178e-93
-1.50378e-93
3.34142e-93
6.57635e-93
6.42995e-94
-1.21303e-92
-1.60641e-92
1.56885e-93
2.93486e-92
3.53113e-92
8.70833e-94
-5.25e-92
-4.66394e-92
-4.33594e-92
1.85251e-91
5.65744e-91
-7.81098e-92
-1.20709e-91
1.57879e-90
2.65048e-91
-2.59437e-90
-2.57073e-90
-5.89564e-91
1.39778e-90
1.52359e-90
1.19294e-90
2.57746e-91
-6.03219e-91
2.64269e-91
1.61397e-90
1.00742e-90
-1.49815e-90
-1.51406e-90
-1.76647e-90
-8.14778e-91
6.53835e-91
1.30389e-90
6.98782e-91
2.60421e-91
-2.2159e-91
-2.33892e-91
-1.03968e-91
-2.54909e-92
3.21006e-92
2.62519e-92
8.57906e-93
-1.23413e-93
-2.9652e-93
-1.06487e-93
-1.27395e-107
5.37653e-107
-5.69171e-106
3.82163e-105
-2.66433e-104
2.07657e-103
-1.15059e-102
8.41053e-102
-6.10352e-101
4.99298e-100
-2.98952e-99
1.68584e-98
-7.298e-98
3.38358e-97
-1.42392e-96
1.10939e-95
-6.21032e-95
2.612e-94
-6.77873e-94
3.262e-93
-1.49574e-92
4.78788e-92
-1.41951e-91
2.1241e-91
-6.4842e-91
9.86373e-91
3.34347e-90
-3.27782e-89
1.52967e-88
-7.05919e-88
2.51945e-87
-6.94305e-87
9.29152e-87
-2.28071e-87
-6.28124e-86
2.81637e-85
-5.15806e-85
-2.88265e-85
3.9584e-84
-9.10004e-84
6.90383e-84
1.41487e-83
-1.62258e-82
2.43841e-82
4.31263e-82
-1.28377e-81
-3.62195e-82
1.90793e-81
3.43136e-80
-3.34472e-80
-1.89307e-79
2.05453e-79
1.35414e-79
-3.15039e-79
9.64871e-79
1.51843e-78
-4.82869e-78
-1.0672e-77
4.07216e-78
4.3672e-77
5.15981e-77
-4.53743e-77
-2.00119e-76
-3.38917e-76
-4.13655e-78
5.93384e-76
7.6654e-76
3.70481e-76
-6.2382e-76
-1.48193e-75
-1.13169e-75
-2.47467e-76
4.39379e-76
1.16804e-75
9.26519e-76
4.88356e-76
1.30162e-77
1.24405e-75
5.60638e-76
-4.6381e-76
-1.46196e-75
-1.65522e-75
-1.47826e-75
6.44778e-77
9.57363e-76
1.10451e-75
6.98355e-76
1.52928e-76
-1.74387e-76
-2.27253e-76
-1.42365e-76
-1.7291e-77
2.23795e-77
2.88553e-77
1.33561e-77
1.63636e-78
-3.78491e-78
-2.5202e-78
-7.00547e-79
2.46158e-79
-5.35207e-93
2.23419e-92
-2.01346e-91
1.64656e-90
-1.35517e-89
9.82181e-89
-7.06932e-88
4.79758e-87
-3.14539e-86
1.99238e-85
-1.26821e-84
7.8202e-84
-4.86387e-83
2.67424e-82
-1.32593e-81
6.54879e-81
-3.05786e-80
1.44939e-79
-6.51212e-79
2.22073e-78
-7.00931e-78
2.13291e-77
-6.6283e-77
1.72133e-76
1.91688e-77
1.46601e-76
8.57788e-76
-6.35782e-75
2.96369e-74
-1.0782e-73
2.9105e-73
-6.23003e-73
1.01344e-72
1.0311e-72
-1.01107e-71
2.83788e-71
-2.15295e-71
-1.43095e-70
8.43705e-70
-2.15431e-69
6.0632e-70
1.28322e-68
-3.74323e-68
1.52124e-68
2.20549e-67
-5.43918e-67
-3.30932e-67
3.79057e-66
-3.48648e-66
-1.82996e-65
2.79982e-65
7.3796e-65
-6.63337e-65
-3.39797e-64
1.65875e-64
1.28097e-63
-5.62012e-65
-3.3521e-63
-4.21237e-63
5.02885e-63
2.02287e-62
1.32781e-62
-2.72466e-62
-7.03556e-62
-9.48398e-62
9.39281e-63
2.10622e-61
2.72619e-61
6.48337e-62
-7.31285e-62
-1.15817e-61
-2.88719e-61
-3.5205e-61
-4.63255e-61
-8.21387e-61
-3.96791e-61
4.9084e-62
1.10267e-60
1.41323e-60
1.19595e-60
5.05979e-61
-3.06683e-61
-8.40345e-61
-7.60102e-61
-4.39592e-61
-9.16665e-62
8.50726e-62
1.2667e-61
8.16364e-62
2.44561e-62
-9.32947e-63
-1.4899e-62
-8.93106e-63
-2.16102e-63
1.13609e-63
1.43975e-63
6.91037e-64
4.34647e-65
-1.67279e-64
-7.89464e-65
-3.78476e-79
1.44908e-78
-1.21961e-77
9.55431e-77
1.25891e-75
-1.00623e-74
7.2349e-74
-5.11168e-73
3.50656e-72
-2.3347e-71
1.50677e-70
-9.41303e-70
5.6833e-69
-3.31054e-68
1.85676e-67
-1.00039e-66
5.1638e-66
-2.54541e-65
1.19355e-64
-4.08386e-64
1.71669e-63
-6.70247e-63
2.40249e-62
-7.79767e-62
-3.85875e-62
-2.89164e-62
-8.38383e-62
4.44624e-61
-1.95602e-60
7.01644e-60
-1.9783e-59
4.17786e-59
-4.50218e-59
-9.06735e-59
5.94495e-58
-1.25038e-57
-1.01816e-57
1.64502e-56
-5.66845e-56
7.75271e-56
1.54124e-55
-9.5773e-55
1.24736e-54
4.64485e-54
-2.15713e-53
1.08293e-53
1.56955e-52
-2.56019e-52
-6.75086e-52
3.08346e-51
3.39661e-52
-6.83963e-51
-1.72385e-50
5.00454e-50
1.74082e-50
-1.20059e-49
-1.19896e-49
1.85186e-49
5.24942e-49
5.9154e-49
-1.68662e-48
-4.08885e-48
-1.98114e-49
2.57558e-47
1.69756e-47
-9.96005e-48
-6.96045e-47
-1.01835e-46
-1.83867e-48
-8.38906e-47
-9.68999e-47
-6.18441e-47
3.20865e-47
4.50653e-47
2.52992e-46
2.96711e-46
3.49587e-46
1.49161e-46
-5.44977e-47
-1.91054e-46
-3.02635e-46
-1.59956e-46
-6.88159e-47
-1.1e-47
1.59698e-47
2.01706e-47
1.32732e-47
4.88176e-48
-3.17418e-49
-1.90834e-48
-1.45982e-48
-6.3521e-49
6.9666e-50
2.08167e-49
1.21205e-49
2.73745e-50
-2.56942e-50