/*--------------------------------*- C++ -*----------------------------------*\
  =========                 |
  \\      /  F ield         | OpenFOAM: The Open Source CFD Toolbox
   \\    /   O peration     | Website:  https://openfoam.org
    \\  /    A nd           | Version:  13
     \\/     M anipulation  |
\*---------------------------------------------------------------------------*/
FoamFile
{
    format      ascii;
    class       volScalarField;
    location    "6.4";
    object      T;
}
// * * * * * * * * * * * * * * * * * * * * * * * * * * * * * * * * * * * * * //

dimensions      [0 0 0 1 0 0 0];

internalField   nonuniform List<scalar> 
10000
(
1.6233e-58
-5.26249e-58
-2.5225e-57
-2.75496e-57
9.74844e-57
4.00794e-56
3.78104e-56
-1.09835e-55
-3.18356e-55
2.19629e-56
6.26311e-55
-3.73201e-54
-1.58766e-53
1.49558e-53
2.33852e-52
5.50372e-52
-3.77167e-52
-5.06079e-51
-1.07713e-50
3.02387e-51
6.86018e-50
1.64708e-49
9.01877e-50
-6.69651e-49
-2.67233e-48
-3.82586e-48
6.14064e-48
3.39709e-47
2.68852e-47
-9.68028e-47
-1.05306e-46
2.50279e-46
-1.09398e-45
-4.36305e-45
1.30372e-44
5.56538e-44
-1.06393e-43
-6.97828e-43
7.44562e-44
5.82907e-42
6.78699e-42
-3.35276e-41
-8.89123e-41
1.09305e-40
7.15176e-40
2.89455e-40
-3.89911e-39
-7.27195e-39
1.15653e-38
5.88269e-38
3.24479e-38
-2.58491e-37
-6.24056e-37
1.64173e-37
3.3831e-36
5.8726e-36
-3.77078e-36
-3.43303e-35
-5.74089e-35
1.82408e-35
2.75078e-34
5.60069e-34
2.6425e-34
-1.42398e-33
-4.35781e-33
-5.75618e-33
2.1065e-34
1.91817e-32
4.8974e-32
7.06951e-32
4.565e-32
-7.41598e-32
-3.19935e-31
-6.75461e-31
-1.06457e-30
-1.37286e-30
-1.4952e-30
-1.38198e-30
-1.06155e-30
-6.30222e-31
-2.13123e-31
8.69055e-32
2.26452e-31
2.26303e-31
1.46562e-31
5.22701e-32
-1.27656e-32
-3.65975e-32
-3.1358e-32
-1.55161e-32
-1.87897e-33
4.5593e-33
4.88728e-33
2.62852e-33
4.56701e-34
-6.13724e-34
-8.71601e-34
-8.58416e-34
-8.31038e-34
-8.2645e-34
1.15679e-57
2.82812e-58
-7.01856e-57
-1.63607e-56
-1.07348e-57
4.89305e-56
5.09339e-57
-2.56639e-55
2.6502e-55
4.39941e-54
9.26201e-54
-1.4131e-53
-1.04481e-52
-1.2037e-52
5.39199e-52
2.14297e-51
1.00216e-51
-1.27427e-50
-3.68641e-50
-8.67158e-51
1.8623e-49
4.54602e-49
7.3271e-50
-2.01479e-48
-5.36278e-48
-6.06982e-48
3.08104e-48
3.29975e-47
9.97673e-47
2.09133e-46
2.95297e-46
3.54833e-47
-1.56391e-45
-6.06589e-45
-1.43496e-44
-3.3061e-44
-9.03323e-44
-1.33384e-43
3.85532e-43
2.36068e-42
3.67072e-42
-4.59957e-42
-2.18835e-41
6.38007e-42
1.59862e-40
2.85812e-40
-1.76433e-40
-1.29427e-39
-1.05568e-39
2.40352e-39
2.37865e-39
-1.4179e-38
-2.56573e-38
6.4301e-38
2.84604e-37
1.48997e-37
-1.54219e-36
-5.04516e-36
-5.16891e-36
1.16026e-35
5.50342e-35
9.37632e-35
1.99821e-35
-2.97171e-34
-7.94331e-34
-9.32557e-34
3.23478e-34
3.96942e-33
9.84326e-33
1.4967e-32
1.1622e-32
-1.26631e-32
-6.88409e-32
-1.5344e-31
-2.4022e-31
-2.91838e-31
-2.88386e-31
-2.42839e-31
-1.80899e-31
-1.13203e-31
-4.37473e-32
9.86054e-33
3.31447e-32
3.31247e-32
2.19856e-32
8.08069e-33
-1.3265e-33
-5.03255e-33
-5.02799e-33
-3.34746e-33
-9.34767e-34
9.63146e-34
1.30583e-33
6.18375e-34
-8.67896e-36
-2.20075e-34
-2.86468e-34
-3.41793e-34
-3.55045e-34
-3.45019e-34
7.34555e-58
3.99345e-57
7.25119e-57
-1.40449e-57
-6.46375e-56
-2.54588e-55
-4.92599e-55
7.80509e-56
3.70229e-54
1.18327e-53
1.66489e-53
-1.04532e-53
-1.22651e-52
-3.72707e-52
-6.14118e-52
2.10369e-52
4.60927e-51
1.25943e-50
9.18312e-51
-4.343e-50
-1.80316e-49
-3.61601e-49
-2.07294e-49
1.86634e-48
8.34175e-48
1.17574e-47
-2.97866e-47
-1.5833e-46
-1.55515e-46
7.76287e-46
3.03387e-45
2.839e-45
-9.61145e-45
-3.45917e-44
-2.84165e-44
7.97479e-44
2.15075e-43
-5.77498e-45
-7.85115e-43
-8.56709e-43
2.71008e-42
1.19821e-41
2.66848e-41
4.36406e-41
3.40211e-41
-9.60436e-41
-4.1559e-40
-6.54898e-40
-1.59323e-40
1.29592e-39
2.60138e-39
-2.06695e-40
-2.06368e-38
-7.76436e-38
-1.20688e-37
6.87523e-38
5.87932e-37
5.92977e-37
-9.4084e-37
3.90018e-37
1.81323e-35
4.89545e-35
-3.7034e-36
-3.8318e-34
-1.29182e-33
-2.27885e-33
-1.54598e-33
3.64823e-33
1.44596e-32
2.71559e-32
3.24098e-32
1.72767e-32
-3.37176e-32
-1.33248e-31
-2.69564e-31
-3.86555e-31
-4.1411e-31
-3.36945e-31
-2.06932e-31
-8.04224e-32
1.3843e-32
5.69459e-32
5.11682e-32
2.74385e-32
1.00048e-32
4.59797e-33
4.43763e-33
-3.59288e-34
-4.76295e-33
-4.37197e-33
-2.09346e-33
1.39414e-34
1.01287e-33
4.44131e-34
4.19362e-35
-1.26841e-34
-2.03868e-34
-2.27079e-34
-2.3947e-34
-2.39054e-34
-8.56452e-57
4.12293e-57
7.46228e-56
1.45864e-55
-1.1022e-55
-1.01303e-54
-1.48622e-54
1.49054e-54
6.55122e-54
-6.6607e-55
-1.23493e-53
1.0427e-52
4.2656e-52
-3.34096e-52
-6.03119e-51
-1.49774e-50
6.95495e-51
1.28145e-49
2.8286e-49
-8.75819e-50
-1.85401e-48
-4.05226e-48
-2.82171e-49
2.01488e-47
5.58629e-47
5.61447e-47
-1.12499e-46
-5.5645e-46
-8.25981e-46
6.94922e-46
4.88291e-45
4.80944e-45
-1.56144e-44
-4.34418e-44
4.58039e-44
4.63823e-43
1.05706e-42
3.46544e-43
-4.75408e-42
-1.46527e-41
-1.32554e-41
4.44783e-41
1.82949e-40
2.16022e-40
-4.26008e-40
-2.15949e-39
-3.3757e-39
1.14736e-39
1.63554e-38
3.34404e-38
1.44678e-38
-9.87499e-38
-3.11288e-37
-3.96606e-37
3.45048e-37
2.94718e-36
7.06735e-36
7.08586e-36
-9.19806e-36
-4.69424e-35
-7.67164e-35
-5.32471e-35
-8.11436e-35
-6.3834e-34
-2.27554e-33
-4.14263e-33
-2.44676e-33
7.22741e-33
2.20106e-32
2.80433e-32
1.54997e-32
-1.19438e-33
-3.68683e-33
-2.82966e-32
-1.61654e-31
-4.18398e-31
-6.50756e-31
-6.63947e-31
-4.29383e-31
-1.20294e-31
7.6855e-32
1.29054e-31
1.11355e-31
7.59744e-32
4.01178e-32
2.20294e-32
1.47212e-32
2.4378e-34
-9.2334e-33
-5.49812e-33
-1.9968e-33
-1.53141e-33
-6.65529e-34
4.12048e-35
6.73512e-34
5.21095e-34
5.47325e-34
8.43039e-34
8.96312e-34
8.33504e-34
-2.83976e-56
-1.77062e-56
1.41492e-55
3.63386e-55
1.2864e-55
-5.80948e-55
7.90243e-55
4.07718e-54
-1.63902e-53
-1.05093e-52
-1.3567e-52
5.0857e-52
2.18791e-51
1.09748e-51
-1.39526e-50
-4.16795e-50
-3.82759e-51
2.66092e-49
6.57709e-49
-8.5276e-51
-3.56018e-48
-7.75458e-48
3.0527e-49
3.63723e-47
8.39324e-47
6.96901e-47
-7.89484e-47
-3.68299e-46
-9.68943e-46
-2.68285e-45
-6.02622e-45
-5.88576e-45
1.76768e-44
1.01074e-43
2.86583e-43
6.36672e-43
1.12496e-42
3.61634e-43
-7.58605e-42
-3.02716e-41
-4.53178e-41
4.88646e-41
3.36819e-40
3.90873e-40
-1.25645e-39
-5.72489e-39
-8.23426e-39
7.83287e-39
5.95147e-38
1.12534e-37
1.58274e-38
-4.20439e-37
-9.94765e-37
-5.46611e-37
2.66683e-36
8.61808e-36
1.23706e-35
3.34915e-36
-3.11375e-35
-9.62804e-35
-1.72376e-34
-2.20235e-34
-2.79115e-34
-5.4235e-34
-8.20539e-34
8.51988e-34
7.86597e-33
1.76093e-32
9.08708e-33
-5.16313e-32
-1.62526e-31
-2.26886e-31
-9.55195e-32
2.41597e-31
5.0467e-31
3.1346e-31
-3.42628e-31
-9.43885e-31
-9.87589e-31
-5.90755e-31
-2.16972e-31
-1.38773e-32
1.26785e-31
1.95271e-31
1.60328e-31
7.96523e-32
1.00067e-32
-1.948e-32
-1.81447e-32
-2.12476e-33
3.06279e-33
-2.52248e-33
-3.44103e-33
3.0867e-34
2.25166e-33
1.81585e-33
2.01613e-33
2.84314e-33
2.99735e-33
2.82509e-33
-3.65423e-57
-4.25818e-56
-1.72405e-55
-3.4038e-55
5.74188e-55
5.93983e-54
1.64137e-53
6.8169e-54
-9.64742e-53
-3.2026e-52
-3.15928e-52
7.98114e-52
3.33198e-51
5.02348e-51
2.11407e-51
-7.78254e-51
-4.05116e-50
-1.44209e-49
-2.38646e-49
4.30747e-49
3.38458e-48
7.44522e-48
-7.1106e-49
-5.04334e-47
-1.39495e-46
-7.73058e-47
6.34271e-46
2.06776e-45
1.16453e-45
-1.02183e-44
-3.30971e-44
-2.29446e-44
1.21249e-43
3.74442e-43
2.0677e-43
-1.16456e-42
-2.71731e-42
-1.64064e-43
6.6672e-42
-6.42298e-43
-4.47151e-41
-9.27182e-41
-1.08747e-40
-4.1102e-40
-1.67878e-39
-2.77233e-39
3.30593e-39
2.7279e-38
6.33424e-38
5.67028e-38
-9.15924e-38
-3.99737e-37
-5.73841e-37
-4.88711e-38
1.20066e-36
2.37215e-36
5.84967e-36
2.11029e-35
3.81519e-35
-5.0987e-35
-4.48812e-34
-9.90947e-34
-7.7218e-35
5.77738e-33
1.87646e-32
3.12308e-32
1.78042e-32
-5.61071e-32
-1.99554e-31
-3.5443e-31
-3.81308e-31
-6.78178e-32
8.49339e-31
2.52143e-30
4.57998e-30
5.94249e-30
5.56969e-30
3.65419e-30
1.50265e-30
8.7195e-32
-5.6212e-31
-6.99767e-31
-5.58899e-31
-3.65435e-31
-1.88215e-31
-9.65636e-32
-8.13438e-32
-5.99504e-33
5.91567e-32
5.7285e-32
2.49721e-32
-5.49363e-33
-1.41957e-32
-5.08871e-33
9.85766e-34
2.9039e-33
3.37926e-33
3.76107e-33
3.78355e-33
3.68429e-33
2.0426e-55
8.38152e-56
-1.39575e-54
-3.75242e-54
-5.62816e-55
1.82318e-53
4.06179e-53
6.89469e-54
-1.11921e-52
-1.58827e-52
-1.96154e-52
-1.81343e-51
-5.26707e-51
9.80759e-51
1.01905e-49
2.45571e-49
-8.84774e-50
-2.01589e-48
-4.64706e-48
9.561e-49
2.95163e-47
6.46595e-47
-4.03479e-48
-3.37162e-46
-7.94388e-46
-4.32681e-46
2.11712e-45
6.00061e-45
4.55505e-45
-9.97101e-45
-2.19587e-44
2.18677e-44
1.05615e-43
-1.12157e-43
-1.35577e-42
-4.27438e-42
-8.27554e-42
-4.8092e-42
4.0427e-41
1.6096e-40
1.55813e-40
-7.18935e-40
-2.83486e-39
-2.7239e-39
8.31804e-39
3.08939e-38
3.22898e-38
-3.71484e-38
-1.36884e-37
-8.72506e-38
8.96304e-38
-2.73412e-37
-1.32719e-36
5.66153e-37
1.08799e-35
1.84279e-35
-2.14302e-35
-1.32776e-34
-1.8581e-34
8.56955e-35
7.54089e-34
1.92503e-33
5.88815e-33
1.82255e-32
3.71428e-32
2.74945e-32
-8.36756e-32
-3.19957e-31
-4.90396e-31
-1.67935e-31
9.52705e-31
2.5991e-30
4.15529e-30
5.63967e-30
7.94451e-30
1.13055e-29
1.38944e-29
1.322e-29
9.13459e-30
4.28612e-30
1.16646e-30
-2.01061e-31
-1.03113e-30
-1.54531e-30
-1.36737e-30
-8.79015e-31
-4.88553e-31
-8.56719e-32
1.77882e-31
1.68895e-31
8.16977e-32
2.24705e-32
-1.26537e-32
-1.95256e-32
-1.37535e-32
-5.39726e-33
-4.53477e-33
-7.01071e-33
-7.36379e-33
-6.71864e-33
5.43006e-55
4.58309e-55
-2.42538e-54
-7.05833e-54
-4.91591e-54
5.4169e-54
-1.02501e-53
-1.96473e-53
4.13831e-52
1.75162e-51
1.10466e-51
-1.12752e-50
-3.46503e-50
2.49865e-51
2.57485e-49
6.29578e-49
-6.3398e-50
-3.86296e-48
-8.75874e-48
-3.1077e-50
4.26888e-47
9.30601e-47
1.31537e-47
-3.6204e-46
-8.80945e-46
-8.56743e-46
2.55544e-46
1.96772e-45
6.90052e-45
3.50595e-44
1.11028e-43
8.90197e-44
-6.37089e-43
-2.43514e-42
-2.72444e-42
2.40719e-42
1.66425e-42
-2.42712e-41
2.69337e-41
4.21765e-40
6.59105e-40
-1.938e-39
-7.98379e-39
-1.90149e-39
4.42767e-38
9.62412e-38
-1.75708e-38
-3.7533e-37
-4.28272e-37
5.15739e-37
5.06371e-37
-5.45925e-36
-1.17494e-35
1.91901e-35
1.20358e-34
1.5337e-34
-3.12578e-34
-1.47158e-33
-1.81348e-33
2.48413e-33
1.34928e-32
2.26656e-32
7.47149e-33
-5.28339e-32
-1.46937e-31
-2.09415e-31
-1.05226e-31
4.03261e-31
1.6011e-30
3.33304e-30
3.93226e-30
-4.64484e-31
-1.41607e-29
-3.71178e-29
-6.11845e-29
-7.38125e-29
-6.88422e-29
-5.24473e-29
-3.50763e-29
-2.03305e-29
-6.97032e-30
3.28674e-30
7.69019e-30
7.22707e-30
4.57376e-30
1.67117e-30
-3.76721e-31
-1.22706e-30
-1.03608e-30
-5.66527e-31
-1.26125e-31
1.52043e-31
1.73589e-31
7.0724e-32
-6.67813e-33
-3.69683e-32
-4.91572e-32
-5.68784e-32
-5.61843e-32
-5.39572e-32
4.54326e-56
1.37235e-55
2.01269e-54
7.43398e-54
-7.11336e-55
-9.0285e-53
-3.00866e-52
-1.98394e-52
1.60909e-51
5.66127e-51
5.19421e-51
-1.5973e-50
-5.68358e-50
-5.99294e-50
1.26991e-50
1.36849e-50
1.69969e-49
2.71056e-48
8.54323e-48
-2.12229e-48
-7.95178e-47
-1.86951e-46
8.3799e-47
1.35392e-45
2.60815e-45
-1.37024e-45
-1.5591e-44
-2.42651e-44
2.72073e-44
1.64862e-43
1.6077e-43
-5.52286e-43
-1.92e-42
-1.34449e-42
5.29784e-42
1.739e-41
3.0172e-41
3.96265e-41
-1.70561e-41
-2.76372e-40
-2.35194e-40
2.24701e-39
6.76185e-39
-9.97977e-40
-3.34347e-38
-7.93468e-39
2.68039e-37
5.13012e-37
-1.10322e-36
-6.56212e-36
-9.82764e-36
1.14668e-35
7.46188e-35
1.15901e-34
-7.23439e-35
-6.81919e-34
-1.32377e-33
-3.3992e-34
4.77585e-33
1.37304e-32
1.5663e-32
-1.66192e-32
-1.11863e-31
-2.44251e-31
-2.49488e-31
2.019e-31
1.43394e-30
3.28839e-30
4.39209e-30
1.50071e-30
-1.05225e-29
-3.76075e-29
-8.37534e-29
-1.45952e-28
-2.08664e-28
-2.46346e-28
-2.40503e-28
-1.97071e-28
-1.40018e-28
-8.81759e-29
-4.6914e-29
-1.60656e-29
5.52859e-30
1.74301e-29
1.84008e-29
1.28931e-29
6.43399e-30
7.55801e-31
-2.11007e-30
-2.36427e-30
-1.43811e-30
-4.0478e-31
1.50744e-31
2.32782e-31
1.33403e-31
2.64546e-32
-2.28784e-32
-4.17963e-32
-3.98803e-32
-3.70304e-32
-3.15847e-54
-3.26562e-54
1.78491e-53
6.31954e-53
4.78417e-53
-2.18672e-52
-7.27973e-52
-7.57231e-52
8.21985e-52
4.40348e-51
1.25948e-50
3.63389e-50
4.97542e-50
-2.21404e-49
-1.47276e-48
-3.43787e-48
2.7911e-49
2.50642e-47
6.57375e-47
1.00788e-47
-3.62443e-46
-8.71659e-46
6.62665e-47
4.65501e-45
9.41933e-45
-1.68809e-45
-3.93845e-44
-4.92703e-44
8.67534e-44
2.13313e-43
-5.82014e-43
-2.4388e-42
5.87054e-43
1.74578e-41
2.68716e-41
-2.36163e-41
-2.20334e-41
3.38752e-40
2.12594e-40
-3.00264e-39
-3.79816e-39
2.35426e-38
6.78977e-38
-5.60691e-38
-5.06352e-37
-3.95237e-37
2.20542e-36
4.66188e-36
-7.02227e-36
-3.75792e-35
-1.93262e-35
1.77102e-34
4.23565e-34
-1.19851e-34
-2.32676e-33
-4.04329e-33
2.32464e-33
2.1983e-32
3.50018e-32
-1.63913e-32
-1.74529e-31
-3.29322e-31
-1.22745e-31
8.52461e-31
2.42237e-30
3.05231e-30
-3.3549e-31
-1.1008e-29
-2.87352e-29
-4.37256e-29
-3.07727e-29
4.86962e-29
2.27286e-28
4.98735e-28
7.99129e-28
1.03112e-27
1.11813e-27
1.03822e-27
8.15827e-28
5.04565e-28
1.84626e-28
-5.44076e-29
-1.62511e-28
-1.59485e-28
-1.02254e-28
-3.66898e-29
9.67769e-30
2.56442e-29
2.0739e-29
9.92155e-30
1.20947e-30
-2.88213e-30
-3.06426e-30
-1.60909e-30
-3.19097e-31
3.32588e-31
5.45347e-31
5.57973e-31
5.42233e-31
5.36118e-31
-8.3623e-54
-8.04144e-54
3.65284e-53
1.22034e-52
1.26553e-52
-7.24364e-53
-2.887e-52
-1.07349e-51
-6.715e-51
-1.80789e-50
6.68654e-51
1.70691e-49
3.9467e-49
-2.06017e-49
-3.20227e-48
-7.36628e-48
-2.28958e-48
2.89886e-47
7.95091e-47
7.08305e-47
-1.28185e-46
-5.04727e-46
-6.30018e-46
4.72402e-47
1.16276e-45
4.42605e-45
2.53562e-44
6.48553e-44
-7.23914e-44
-8.24765e-43
-1.56638e-42
1.52678e-42
1.19152e-41
2.46478e-41
3.73555e-41
1.80556e-41
-3.51826e-40
-1.42939e-39
-5.44418e-40
9.86084e-39
2.13672e-38
-2.79058e-38
-1.60307e-37
-2.02942e-38
9.35635e-37
1.12876e-36
-5.13e-36
-1.71769e-35
-5.88225e-37
1.02905e-34
2.22295e-34
-6.25641e-35
-1.2218e-33
-2.26944e-33
8.31089e-34
1.20876e-32
2.27274e-32
-3.34608e-33
-1.10592e-31
-2.53798e-31
-1.53744e-31
6.63731e-31
2.28964e-30
3.33087e-30
3.00126e-31
-1.07864e-29
-2.99087e-29
-4.73152e-29
-3.89162e-29
3.73301e-29
2.44408e-28
6.5913e-28
1.33261e-27
2.21291e-27
3.09049e-27
3.66923e-27
3.75737e-27
3.38632e-27
2.71775e-27
1.90067e-27
1.07336e-27
3.88624e-28
-6.25255e-29
-2.80851e-28
-3.08507e-28
-2.18833e-28
-9.99716e-29
-1.18271e-29
2.69312e-29
3.24744e-29
2.23123e-29
8.68891e-30
-2.75353e-31
-3.20213e-30
-2.79196e-30
-1.35625e-30
-3.49367e-31
3.16775e-33
1.53035e-33
-3.21522e-32
-5.73739e-54
3.95258e-54
2.46145e-53
2.21018e-54
-4.10975e-53
4.53678e-52
2.39497e-51
2.88781e-51
-1.25723e-50
-5.90073e-50
-8.32663e-50
1.01874e-49
6.26972e-49
1.2016e-48
1.66392e-48
1.77353e-48
-1.1589e-47
-8.42167e-47
-1.95202e-46
1.41805e-46
1.93234e-45
3.98991e-45
-2.73991e-45
-3.02096e-44
-5.30283e-44
4.28141e-44
3.513e-43
4.32471e-43
-1.11157e-42
-4.07546e-42
6.5212e-43
2.43647e-41
2.90486e-41
-6.05814e-41
-4.7603e-41
3.66364e-40
-9.14127e-40
-7.2789e-39
-1.81182e-39
5.78522e-38
7.88351e-38
-3.42573e-37
-9.77148e-37
1.1208e-36
7.77446e-36
2.61501e-36
-4.63467e-35
-8.60422e-35
1.40672e-34
7.30382e-34
4.99156e-34
-2.90058e-33
-7.57609e-33
5.46396e-34
3.70919e-32
6.82827e-32
-3.3567e-32
-3.70332e-31
-6.33551e-31
1.80838e-31
2.97818e-30
6.04288e-30
2.55563e-30
-1.65359e-29
-4.89346e-29
-6.07827e-29
1.80475e-29
2.50762e-28
5.92859e-28
7.83497e-28
3.3152e-28
-1.32121e-27
-4.49026e-27
-8.95802e-27
-1.38866e-26
-1.79875e-26
-1.98991e-26
-1.87387e-26
-1.46512e-26
-8.88011e-27
-3.16518e-27
1.02506e-27
2.98344e-27
2.96579e-27
1.89703e-27
6.87375e-28
-1.38981e-28
-4.49873e-28
-4.00679e-28
-2.0581e-28
-3.01975e-29
5.44283e-29
6.13159e-29
3.4345e-29
7.61475e-30
-6.25169e-30
-1.01602e-29
-1.00113e-29
-9.64621e-30
-9.61985e-30
2.33895e-53
5.66276e-53
-6.72641e-53
-5.07777e-52
-8.89853e-52
3.92439e-52
5.81139e-51
1.61145e-50
1.96044e-50
-4.42684e-50
-3.18844e-49
-8.04329e-49
-3.71108e-49
4.82272e-48
2.01526e-47
3.73496e-47
-1.15007e-47
-2.85126e-46
-7.48341e-46
-1.68167e-46
4.14293e-45
9.81174e-45
-5.02458e-45
-6.66164e-44
-9.75051e-44
1.48997e-43
6.20052e-43
2.54049e-43
-1.54201e-42
-2.40159e-42
-2.54486e-42
5.59641e-42
1.07333e-40
2.59733e-40
-7.21291e-40
-3.94238e-39
-2.56726e-40
2.906e-38
3.37028e-38
-1.76186e-37
-4.59107e-37
5.97165e-37
3.66184e-36
6.47583e-37
-2.25837e-35
-3.64705e-35
8.18104e-35
3.46541e-34
1.14476e-34
-1.7153e-33
-3.69922e-33
2.08441e-33
2.29198e-32
3.56028e-32
-3.68732e-32
-2.44645e-31
-3.62593e-31
2.84493e-31
2.24109e-30
4.09358e-30
6.54175e-31
-1.48584e-29
-4.03888e-29
-4.86561e-29
1.99604e-29
2.29834e-28
5.69043e-28
8.28281e-28
5.01204e-28
-1.20397e-27
-5.18064e-27
-1.20769e-26
-2.18572e-26
-3.34267e-26
-4.46066e-26
-5.27104e-26
-5.55474e-26
-5.22539e-26
-4.352e-26
-3.12957e-26
-1.82447e-26
-7.02003e-27
5.84695e-28
4.20392e-27
4.69725e-27
3.42911e-27
1.6902e-27
3.29996e-28
-3.78509e-28
-5.32e-28
-3.76197e-28
-1.52638e-28
1.33906e-30
5.7866e-29
5.27378e-29
2.8198e-29
9.93765e-30
4.05341e-30
4.03052e-30
4.43005e-30
8.74598e-53
8.83834e-53
-3.59186e-52
-1.23452e-51
-1.43525e-51
2.56639e-52
3.67026e-51
1.82671e-50
7.83956e-50
1.38903e-49
-2.60165e-49
-1.86189e-48
-3.27031e-48
2.99077e-48
2.7088e-47
6.44928e-47
8.43494e-47
2.49151e-47
-3.41798e-46
-1.65829e-45
-4.20689e-45
-4.96997e-45
4.2176e-45
3.73318e-44
1.13636e-43
1.06179e-43
-6.48793e-43
-1.806e-42
3.73629e-42
1.74505e-41
-2.38068e-41
-1.4643e-40
2.10476e-40
1.33412e-39
-2.03004e-39
-1.48863e-38
6.55158e-39
1.35762e-37
8.0243e-38
-9.59993e-37
-1.53676e-36
5.3101e-36
1.63528e-35
-1.8081e-35
-1.32153e-34
-5.58343e-35
7.57001e-34
1.459e-33
-2.19748e-33
-1.18033e-32
-7.60104e-33
4.92711e-32
1.25247e-31
-1.91342e-32
-6.43035e-31
-1.1452e-30
6.94464e-31
6.57705e-30
1.08673e-29
-4.33797e-30
-5.4507e-29
-1.06962e-28
-3.75986e-29
3.13326e-28
8.95265e-28
1.09387e-27
-3.39729e-28
-4.52158e-27
-1.06484e-26
-1.40132e-26
-5.63543e-27
2.48839e-26
8.36258e-26
1.66573e-25
2.5741e-25
3.30981e-25
3.62133e-25
3.37071e-25
2.61304e-25
1.58071e-25
5.75926e-26
-1.5517e-26
-5.04236e-26
-5.17873e-26
-3.42864e-26
-1.32704e-26
1.60842e-27
7.65e-27
7.09394e-27
3.7524e-27
6.69546e-28
-8.69142e-28
-1.04696e-27
-6.04847e-28
-1.39382e-28
1.09431e-28
1.76386e-28
1.73208e-28
1.66522e-28
1.66061e-28
1.48905e-52
-1.49949e-52
-1.1454e-51
-1.44188e-51
2.6735e-51
9.66476e-51
-4.07424e-51
-6.75719e-50
-7.58536e-50
3.89281e-49
1.59497e-48
1.66434e-48
-5.54539e-48
-2.73815e-47
-5.72767e-47
-2.3166e-47
3.68912e-46
1.68979e-45
3.08345e-45
-3.62388e-45
-3.44825e-44
-6.6883e-44
6.13008e-44
5.11808e-43
6.06185e-43
-1.28637e-42
-3.37402e-42
9.03701e-43
4.09347e-43
-1.22661e-41
1.41567e-40
4.19885e-40
-1.49829e-39
-6.71724e-39
6.32415e-39
6.45605e-38
1.03941e-38
-5.00915e-37
-5.62206e-37
3.24811e-36
8.00719e-36
-1.2738e-35
-6.9975e-35
-9.71312e-36
4.28618e-34
6.80419e-34
-1.51536e-33
-6.27884e-33
-1.65995e-33
3.16136e-32
6.4364e-32
-4.78159e-32
-4.20501e-31
-5.96582e-31
8.0787e-31
4.51015e-30
6.13547e-30
-6.26091e-30
-4.07754e-29
-6.96665e-29
-1.8606e-30
2.71271e-28
6.92731e-28
7.74173e-28
-4.85601e-28
-4.08648e-27
-9.64464e-27
-1.34002e-26
-6.66598e-27
2.36436e-26
9.11504e-26
2.03428e-25
3.5575e-25
5.2891e-25
6.9244e-25
8.11503e-25
8.55817e-25
8.09978e-25
6.81241e-25
4.98053e-25
2.99751e-25
1.25162e-25
2.43032e-27
-5.98652e-26
-7.26073e-26
-5.59615e-26
-2.96603e-26
-7.36314e-27
5.31182e-27
8.67092e-27
6.46492e-27
2.81973e-27
1.54311e-28
-9.28715e-28
-9.02008e-28
-5.03517e-28
-2.04842e-28
-1.09898e-28
-1.0997e-28
-1.15792e-28
6.50913e-53
-7.30472e-52
-1.99162e-51
-5.57376e-52
1.15658e-50
3.48178e-50
9.72741e-51
-2.3035e-49
-6.46674e-49
1.43696e-49
5.20866e-48
1.25537e-47
-1.12766e-48
-8.04488e-47
-2.25909e-46
-2.53944e-46
4.21732e-46
2.99257e-45
7.18901e-45
5.71968e-46
-4.94175e-44
-1.11886e-43
1.33963e-43
9.9226e-43
7.37601e-43
-4.01157e-42
-5.47861e-42
1.16454e-41
-1.39435e-41
-9.81388e-41
5.43436e-40
1.75448e-39
-5.83398e-39
-2.49833e-38
3.45494e-38
2.56097e-37
-8.3663e-38
-2.1939e-36
-1.27776e-36
1.58122e-35
2.55505e-35
-8.62842e-35
-2.7109e-34
2.74909e-34
2.13088e-33
1.01761e-33
-1.17988e-32
-2.2919e-32
3.48122e-32
1.84627e-31
1.08613e-31
-8.05442e-31
-1.98176e-30
4.61647e-31
1.05956e-29
1.83609e-29
-1.24123e-29
-1.08287e-28
-1.74573e-28
8.21591e-29
9.04741e-28
1.73083e-27
5.06408e-28
-5.33269e-27
-1.47827e-26
-1.75989e-26
6.56373e-27
7.54713e-26
1.75471e-25
2.29154e-25
8.74489e-26
-4.26677e-25
-1.42242e-24
-2.83504e-24
-4.37884e-24
-5.61319e-24
-6.1137e-24
-5.66796e-24
-4.38535e-24
-2.65569e-24
-9.80302e-25
2.34307e-25
8.18175e-25
8.53099e-25
5.73641e-25
2.28365e-25
-2.03519e-26
-1.23758e-25
-1.16162e-25
-6.19549e-26
-1.18036e-26
1.35748e-26
1.68476e-26
9.82309e-27
2.31075e-27
-1.75106e-27
-2.86116e-27
-2.83056e-27
-2.72586e-27
-2.71604e-27
-5.12433e-52
-2.50245e-52
1.86607e-51
2.04995e-51
-5.20741e-51
1.63758e-53
6.88592e-50
1.23024e-49
-2.35231e-49
-1.00884e-48
-3.48124e-50
5.7482e-48
1.34157e-47
1.42276e-47
-1.65717e-47
-2.81507e-46
-1.41814e-45
-3.62899e-45
-2.32625e-45
2.05665e-44
9.22555e-44
1.3521e-43
-2.56101e-43
-9.15797e-43
1.69923e-42
5.26071e-42
-3.03504e-41
-8.17443e-41
3.11795e-40
1.08513e-39
-2.44238e-39
-1.17804e-38
1.5563e-38
1.13789e-37
-6.77158e-38
-1.02255e-36
-1.96775e-37
8.22347e-36
9.34794e-36
-5.35155e-35
-1.29705e-34
2.24428e-34
1.1728e-33
8.25882e-35
-7.34278e-33
-1.10873e-32
2.73378e-32
1.0762e-31
2.19158e-32
-5.5404e-31
-1.09823e-30
8.64423e-31
7.21106e-30
9.97871e-30
-1.41776e-29
-7.62417e-29
-1.00794e-28
1.1132e-28
6.85582e-28
1.14263e-27
-3.27512e-29
-4.58028e-27
-1.1392e-26
-1.22136e-26
9.26155e-27
6.81128e-26
1.55176e-25
2.06593e-25
8.40473e-26
-4.1143e-25
-1.47936e-24
-3.2258e-24
-5.57455e-24
-8.23026e-24
-1.07185e-23
-1.24983e-23
-1.31231e-23
-1.23983e-23
-1.04585e-23
-7.7175e-24
-4.73896e-24
-2.08945e-24
-1.83999e-25
8.36311e-25
1.10067e-24
8.87543e-25
4.93045e-25
1.3893e-25
-7.02166e-26
-1.328e-25
-1.0461e-25
-4.87951e-26
-5.40655e-27
1.35539e-26
1.42801e-26
8.35855e-27
3.70166e-27
2.1508e-27
2.13154e-27
2.2255e-27
-2.03237e-51
4.11492e-51
2.05991e-50
1.46537e-50
-9.8824e-50
-3.00276e-49
-1.31023e-50
1.98972e-48
4.9411e-48
-9.89119e-49
-3.472e-47
-7.94651e-47
2.37949e-47
5.7407e-46
1.44506e-45
6.76579e-46
-6.81081e-45
-2.63661e-44
-4.25e-44
4.82386e-44
4.58838e-43
8.61024e-43
-1.206e-42
-6.92737e-42
-5.0284e-44
3.1348e-41
-4.08895e-41
-2.42659e-40
7.72388e-40
2.88907e-39
-8.59057e-39
-3.49057e-38
7.17655e-38
3.79669e-37
-4.49165e-37
-3.70803e-36
1.38936e-36
3.27445e-35
1.72158e-35
-2.42337e-34
-3.78974e-34
1.34926e-33
4.16332e-33
-4.24732e-33
-3.26035e-32
-1.52756e-32
1.80787e-31
3.49372e-31
-5.34436e-31
-2.81497e-30
-1.6261e-30
1.23388e-29
3.01488e-29
-7.51006e-30
-1.62178e-28
-2.78918e-28
1.94176e-28
1.65562e-27
2.64654e-27
-1.31074e-27
-1.38598e-26
-2.62597e-26
-6.99017e-27
8.29196e-26
2.26973e-25
2.66087e-25
-1.13363e-25
-1.18137e-24
-2.71686e-24
-3.50937e-24
-1.2427e-24
6.8219e-24
2.23571e-23
4.43271e-23
6.82805e-23
8.73999e-23
9.51407e-23
8.82082e-23
6.8262e-23
4.13554e-23
1.53214e-23
-3.52819e-24
-1.26108e-23
-1.32057e-23
-8.90973e-24
-3.5647e-24
2.92363e-25
1.89816e-24
1.78782e-24
9.56705e-25
1.84946e-25
-2.07164e-25
-2.5904e-25
-1.51597e-25
-3.6246e-26
2.63482e-26
4.37125e-26
4.33634e-26
4.17593e-26
4.1602e-26
-3.9157e-51
7.39856e-51
4.57744e-50
6.82147e-50
-1.28277e-49
-7.62311e-49
-9.47189e-49
2.92023e-48
1.26075e-47
6.88221e-48
-7.14871e-47
-2.08726e-46
-3.10446e-47
1.23778e-45
3.59941e-45
3.2607e-45
-1.15138e-44
-5.48084e-44
-8.88265e-44
4.77371e-44
4.41189e-43
1.02071e-42
2.5991e-42
-2.58679e-42
-5.63409e-41
-8.22428e-41
5.55134e-40
1.37455e-39
-4.96491e-39
-1.70988e-38
3.92998e-38
1.86092e-37
-2.58015e-37
-1.84426e-36
1.0566e-36
1.66314e-35
4.67278e-36
-1.2955e-34
-1.58086e-34
8.17315e-34
2.0391e-33
-3.43569e-33
-1.82425e-32
-1.07939e-33
1.15465e-31
1.72771e-31
-4.36158e-31
-1.69914e-30
-3.19377e-31
8.80987e-30
1.7347e-29
-1.38357e-29
-1.1388e-28
-1.562e-28
2.2586e-28
1.19681e-27
1.55918e-27
-1.79735e-27
-1.07459e-26
-1.76347e-26
1.18156e-27
7.21922e-26
1.76683e-25
1.85042e-25
-1.53828e-25
-1.06364e-24
-2.3833e-24
-3.11018e-24
-1.1314e-24
6.52285e-24
2.27572e-23
4.90369e-23
8.41132e-23
1.23496e-22
1.60095e-22
1.86006e-22
1.94891e-22
1.84076e-22
1.55488e-22
1.15123e-22
7.12939e-23
3.22536e-23
3.86776e-24
-1.17678e-23
-1.62213e-23
-1.33726e-23
-7.59953e-24
-2.27971e-24
9.30546e-25
1.95478e-24
1.58967e-24
7.66726e-25
1.044e-25
-1.95529e-25
-2.16189e-25
-1.30341e-25
-6.02043e-26
-3.62466e-26
-3.57859e-26
-3.72121e-26
-1.77406e-51
-2.14383e-50
-1.37785e-50
1.76657e-49
5.86003e-49
2.40827e-49
-3.10323e-48
-8.87402e-48
-5.85993e-48
2.26564e-47
6.05542e-47
1.63202e-47
-2.11297e-46
-3.61938e-46
9.50536e-46
5.18787e-45
3.97457e-45
-2.88344e-44
-8.42975e-44
-1.35566e-43
-5.51365e-43
2.87918e-44
1.24052e-41
2.2423e-41
-1.29355e-40
-3.31474e-40
1.32187e-39
3.87553e-39
-1.42506e-38
-4.76147e-38
1.3234e-37
5.46427e-37
-1.02102e-36
-5.66929e-36
6.24267e-36
5.44585e-35
-1.70534e-35
-4.72344e-34
-2.6127e-34
3.47118e-33
5.42612e-33
-1.96046e-32
-6.01992e-32
6.24268e-32
4.74326e-31
2.19487e-31
-2.64063e-30
-5.10896e-30
7.7508e-30
4.10676e-29
2.42106e-29
-1.78557e-28
-4.39148e-28
1.02628e-28
2.3449e-27
4.05355e-27
-2.76734e-27
-2.39297e-26
-3.83908e-26
1.86372e-26
2.00105e-25
3.80099e-25
1.02981e-25
-1.19613e-24
-3.28167e-24
-3.85327e-24
1.63493e-24
1.7105e-23
3.93561e-23
5.08339e-23
1.79905e-23
-9.87273e-23
-3.23336e-22
-6.40768e-22
-9.86842e-22
-1.26329e-21
-1.37552e-21
-1.2756e-21
-9.87318e-22
-5.98173e-22
-2.21428e-22
5.15501e-23
1.83076e-22
1.91476e-22
1.28995e-22
5.14566e-23
-4.37134e-24
-2.75365e-23
-2.59007e-23
-1.38463e-23
-2.65502e-24
3.01911e-24
3.75859e-24
2.19534e-24
5.23108e-25
-3.82653e-25
-6.33811e-25
-6.2837e-25
-6.05033e-25
-6.02745e-25
1.6928e-50
-1.14466e-49
-3.4225e-49
5.05023e-50
2.51248e-48
5.90756e-48
-1.28953e-48
-4.06178e-47
-9.71744e-47
-9.49363e-48
5.0842e-46
1.17954e-45
-1.19783e-46
-6.55232e-45
-1.55098e-44
-5.96106e-45
6.9818e-44
1.90963e-43
-1.00961e-43
-1.07228e-42
1.38018e-42
7.12937e-42
-3.36116e-41
-7.63954e-41
5.85469e-40
1.36091e-39
-6.87554e-39
-1.98662e-38
6.55618e-38
2.40146e-37
-5.49818e-37
-2.63819e-36
3.82555e-36
2.69928e-35
-1.53107e-35
-2.45383e-34
-7.87358e-35
1.89436e-33
2.40736e-33
-1.17739e-32
-3.02032e-32
4.83599e-32
2.65812e-31
2.42641e-32
-1.67265e-30
-2.5529e-30
6.2469e-30
2.47686e-29
5.19855e-30
-1.27561e-28
-2.54039e-28
1.95502e-28
1.65366e-27
2.29136e-27
-3.23716e-27
-1.73926e-26
-2.28409e-26
2.57269e-26
1.55967e-25
2.57239e-25
-1.41751e-26
-1.04518e-24
-2.56835e-24
-2.70597e-24
2.19034e-24
1.53886e-23
3.45927e-23
4.52948e-23
1.68396e-23
-9.38915e-23
-3.28971e-22
-7.09287e-22
-1.21607e-21
-1.78375e-21
-2.31014e-21
-2.68246e-21
-2.81046e-21
-2.65502e-21
-2.24249e-21
-1.65929e-21
-1.02676e-21
-4.64301e-22
-5.54691e-23
1.69979e-22
2.34202e-22
1.92953e-22
1.09594e-22
3.2887e-23
-1.34124e-23
-2.82e-23
-2.29321e-23
-1.10527e-23
-1.49513e-24
2.83043e-24
3.12584e-24
1.88367e-24
8.67824e-25
5.21207e-25
5.14645e-25
5.35291e-25
7.46628e-50
-1.35095e-49
-8.73395e-49
-1.34515e-48
2.21876e-48
1.42042e-47
2.15674e-47
-3.35633e-47
-1.99911e-46
-2.3595e-46
6.11848e-46
2.4491e-45
1.54658e-45
-1.03502e-44
-3.57703e-44
-3.96186e-44
1.19377e-43
5.69942e-43
4.74354e-43
-1.11562e-42
3.8876e-42
8.99462e-42
-1.22699e-40
-2.3881e-40
1.70647e-39
4.01425e-39
-1.94417e-38
-5.41441e-38
2.01056e-37
6.66746e-37
-1.84468e-36
-7.56561e-36
1.46349e-35
8.01696e-35
-8.75008e-35
-7.7329e-34
1.96487e-34
6.58241e-33
3.93689e-33
-4.77248e-32
-7.61129e-32
2.68994e-31
8.36325e-31
-8.50628e-31
-6.58171e-30
-3.16336e-30
3.64908e-29
7.15545e-29
-1.05257e-28
-5.70055e-28
-3.51653e-28
2.44529e-27
6.11566e-27
-1.19703e-27
-3.21636e-26
-5.66052e-26
3.56921e-26
3.27574e-25
5.3518e-25
-2.31708e-25
-2.72165e-24
-5.25514e-24
-1.61661e-24
1.60278e-23
4.47809e-23
5.36544e-23
-1.93241e-23
-2.28684e-22
-5.33518e-22
-6.98883e-22
-2.72328e-22
1.28221e-21
4.29343e-21
8.56291e-21
1.32266e-20
1.69556e-20
1.84692e-20
1.71207e-20
1.32356e-20
7.99642e-21
2.9279e-21
-7.39466e-22
-2.49627e-21
-2.5915e-21
-1.73525e-21
-6.83625e-22
6.87216e-23
3.77379e-22
3.51346e-22
1.86113e-22
3.42332e-23
-4.19831e-23
-5.12492e-23
-2.96259e-23
-6.85441e-24
5.36214e-24
8.69176e-24
8.58816e-24
8.26986e-24
8.24032e-24
1.48003e-49
4.23371e-49
-2.9437e-49
-4.43376e-48
-1.06178e-47
9.88611e-49
6.88685e-47
1.72517e-46
7.83709e-47
-5.94762e-46
-1.54614e-45
-6.23049e-46
4.29214e-45
9.30042e-45
9.5383e-45
-1.38791e-44
-2.13699e-43
-1.34078e-44
5.31235e-42
1.15689e-41
-5.12918e-41
-1.58938e-40
5.29853e-40
1.60797e-39
-7.28433e-39
-2.08409e-38
8.55957e-38
2.73411e-37
-8.41133e-37
-3.24449e-36
7.19509e-36
3.58393e-35
-4.90854e-35
-3.63848e-34
1.86509e-34
3.28676e-33
1.16095e-33
-2.54331e-32
-3.33976e-32
1.57061e-31
4.14489e-31
-6.25223e-31
-3.59541e-30
-5.36148e-31
2.22987e-29
3.5386e-29
-8.09994e-29
-3.34271e-28
-8.93795e-29
1.68783e-27
3.47291e-27
-2.37965e-27
-2.2067e-26
-3.17563e-26
4.07988e-26
2.32847e-25
3.17891e-25
-3.17756e-25
-2.08227e-24
-3.54695e-24
-7.76956e-26
1.37747e-23
3.49245e-23
3.84376e-23
-2.57066e-23
-2.04718e-22
-4.72569e-22
-6.36351e-22
-2.75882e-22
1.21328e-21
4.43697e-21
9.71793e-21
1.68238e-20
2.48483e-20
3.23392e-20
3.76654e-20
3.95059e-20
3.72851e-20
3.1391e-20
2.3086e-20
1.41259e-20
6.21974e-21
5.4288e-22
-2.51655e-21
-3.31485e-21
-2.66943e-21
-1.47895e-21
-4.14701e-22
2.10868e-22
3.97876e-22
3.13838e-22
1.46398e-22
1.59629e-23
-4.09284e-23
-4.30205e-23
-2.51181e-23
-1.1034e-23
-6.33223e-24
-6.27061e-24
-6.55415e-24
-1.1303e-49
1.93491e-48
4.80343e-48
-2.46757e-48
-3.96821e-47
-8.42289e-47
3.41267e-47
5.90009e-46
1.28992e-45
5.95268e-49
-6.31432e-45
-1.32677e-44
8.38956e-46
6.14731e-44
1.65767e-43
1.80399e-43
-6.03988e-43
-1.76201e-42
7.58235e-42
2.18111e-41
-1.21e-40
-3.43346e-40
1.49779e-39
3.91566e-39
-2.13447e-38
-5.46346e-38
2.5765e-37
7.39942e-37
-2.65844e-36
-8.98521e-36
2.45808e-35
1.01958e-34
-1.95024e-34
-1.08194e-33
1.14791e-33
1.0407e-32
-2.32186e-33
-8.82588e-32
-5.61123e-32
6.34404e-31
1.04198e-30
-3.52424e-30
-1.12514e-29
1.07323e-29
8.75392e-29
4.61954e-29
-4.78302e-28
-9.66893e-28
1.32728e-27
7.54454e-27
5.05169e-27
-3.15744e-26
-8.16083e-26
1.00599e-26
4.16894e-25
7.60206e-25
-4.02688e-25
-4.22936e-24
-7.16793e-24
2.36778e-24
3.46889e-23
6.92914e-23
2.64371e-23
-1.97877e-22
-5.75097e-22
-7.18241e-22
1.66833e-22
2.80764e-21
6.75384e-21