/*--------------------------------*- C++ -*----------------------------------*\
  =========                 |
  \\      /  F ield         | OpenFOAM: The Open Source CFD Toolbox
   \\    /   O peration     | Website:  https://openfoam.org
    \\  /    A nd           | Version:  13
     \\/     M anipulation  |
\*---------------------------------------------------------------------------*/
FoamFile
{
    format      ascii;
    class       volScalarField;
    location    "3.8";
    object      T;
}
// * * * * * * * * * * * * * * * * * * * * * * * * * * * * * * * * * * * * * //

dimensions      [0 0 0 1 0 0 0];

internalField   nonuniform List<scalar> 
10000
(
1.40015e-77
3.25421e-78
1.72388e-77
4.94033e-77
-7.15269e-76
5.72717e-75
-3.66878e-74
2.06898e-73
-1.06152e-72
5.02548e-72
-2.20797e-71
9.01044e-71
-3.40545e-70
1.18394e-69
-3.74068e-69
1.05116e-68
-2.51785e-68
4.61822e-68
-3.82485e-68
-1.45681e-67
8.8318e-67
-2.67972e-66
4.83977e-66
-1.01095e-66
-2.77532e-65
1.05251e-64
-1.82042e-64
-7.09999e-65
1.36628e-63
-3.64815e-63
1.9748e-63
1.69832e-62
-5.57877e-62
3.38755e-62
2.55228e-61
-7.53964e-61
3.22423e-62
4.33178e-60
-7.81292e-60
-1.21175e-59
6.2454e-59
-1.64686e-59
-3.28687e-58
4.49115e-58
1.37525e-57
-3.5752e-57
-4.95281e-57
2.18753e-56
1.69448e-56
-1.19837e-55
-6.87629e-56
6.19843e-55
4.13033e-55
-3.03973e-54
-3.16296e-54
1.35242e-53
2.38872e-53
-4.78497e-53
-1.56636e-52
7.04719e-53
8.1551e-52
6.95804e-52
-2.7807e-51
-7.33359e-51
4.89437e-52
3.3173e-50
5.99723e-50
-2.23286e-50
-2.99352e-49
-5.75212e-49
-1.35591e-49
1.95257e-48
5.55339e-48
7.49243e-48
3.64311e-49
-2.59195e-47
-7.90581e-47
-1.57655e-46
-2.47125e-46
-3.22225e-46
-3.56658e-46
-3.35395e-46
-2.62737e-46
-1.61117e-46
-6.10343e-47
1.21754e-47
4.76036e-47
4.99097e-47
3.32902e-47
1.28876e-47
-1.51865e-48
-7.22819e-48
-6.53878e-48
-3.32925e-48
-5.07454e-49
8.29179e-49
9.27179e-49
4.98545e-49
8.56553e-50
-1.04426e-49
-2.81377e-76
-4.34052e-77
-4.65799e-76
-2.26817e-76
9.95515e-75
-9.09756e-74
6.12871e-73
-3.54995e-72
1.85189e-71
-8.8677e-71
3.92864e-70
-1.61353e-69
6.12975e-69
-2.14029e-68
6.78804e-68
-1.91438e-67
4.60348e-67
-8.4921e-67
7.19538e-67
2.61274e-66
-1.60775e-65
4.90513e-65
-8.91352e-65
2.04039e-65
5.04958e-64
-1.92821e-63
3.35558e-63
1.24049e-63
-2.49811e-62
6.70512e-62
-3.70092e-62
-3.10381e-61
1.02504e-60
-6.31218e-61
-4.67148e-60
1.38637e-59
-7.02133e-61
-7.94619e-59
1.43891e-58
2.21559e-58
-1.14773e-57
3.07762e-58
6.03506e-57
-8.27034e-57
-2.52385e-56
6.57426e-56
9.08727e-56
-4.02056e-55
-3.10999e-55
2.20206e-54
1.26373e-54
-1.1388e-53
-7.60077e-54
5.58314e-53
5.82143e-53
-2.48252e-52
-4.39405e-52
8.77048e-52
2.87883e-51
-1.28068e-51
-1.49692e-50
-1.28434e-50
5.09126e-50
1.34747e-49
-8.03679e-51
-6.07581e-49
-1.10261e-48
3.9907e-49
5.47662e-48
1.05624e-47
2.58426e-48
-3.55879e-47
-1.01614e-46
-1.37637e-46
-8.40586e-48
4.70525e-46
1.4401e-45
2.8751e-45
4.50923e-45
5.88123e-45
6.5105e-45
6.12226e-45
4.7951e-45
2.93896e-45
1.11123e-45
-2.25199e-46
-8.712e-46
-9.12193e-46
-6.07798e-46
-2.34758e-46
2.8356e-47
1.32402e-46
1.19545e-46
6.07541e-47
9.16294e-48
-1.52248e-47
-1.6967e-47
-9.1037e-48
-1.54965e-48
1.91643e-48
6.63176e-75
6.49554e-76
1.30054e-74
-7.66159e-75
-1.59595e-73
1.73466e-72
-1.23322e-71
7.33464e-71
-3.887e-70
1.88091e-69
-8.39597e-69
3.46808e-68
-1.32351e-67
4.63871e-67
-1.47605e-66
4.17577e-66
-1.0075e-65
1.8676e-65
-1.61254e-65
-5.62327e-65
3.5056e-64
-1.07459e-63
1.96289e-63
-4.82435e-64
-1.10053e-62
4.22727e-62
-7.39481e-62
-2.60718e-62
5.46747e-61
-1.47402e-60
8.26858e-61
6.79049e-60
-2.25282e-59
1.40364e-59
1.02333e-58
-3.04887e-58
1.74735e-59
1.74398e-57
-3.16868e-57
-4.84914e-57
2.52285e-56
-6.86027e-57
-1.32559e-55
1.82106e-55
5.54125e-55
-1.44586e-54
-1.99477e-54
8.83862e-54
6.82868e-54
-4.84002e-53
-2.7779e-53
2.50267e-52
1.67266e-52
-1.22668e-51
-1.28126e-51
5.45161e-51
9.66658e-51
-1.9236e-50
-6.32858e-50
2.78836e-50
3.28716e-49
2.83362e-49
-1.11561e-48
-2.96148e-48
1.58855e-49
1.33174e-47
2.42458e-47
-8.56256e-48
-1.19925e-46
-2.32017e-46
-5.85256e-47
7.76784e-46
2.22537e-45
3.02447e-45
2.16606e-46
-1.02348e-44
-3.14176e-44
-6.27861e-44
-9.85187e-44
-1.28526e-43
-1.42293e-43
-1.33806e-43
-1.04783e-43
-6.41942e-44
-2.42325e-44
4.97714e-45
1.90827e-44
1.9958e-44
1.32861e-44
5.12156e-45
-6.31626e-46
-2.90231e-45
-2.61623e-45
-1.32749e-45
-1.98387e-46
3.34417e-46
3.71619e-46
1.99029e-46
3.36083e-47
-4.20767e-47
-1.5239e-73
-7.17047e-75
-3.40939e-73
4.4616e-73
2.10912e-72
-3.13562e-71
2.39512e-70
-1.47108e-69
7.93993e-69
-3.88791e-68
1.75002e-67
-7.27399e-67
2.78961e-66
-9.8168e-66
3.13473e-65
-8.89738e-65
2.15426e-64
-4.01358e-64
3.5325e-64
1.18114e-63
-7.46646e-63
2.30007e-62
-4.22417e-62
1.11187e-62
2.34287e-61
-9.055e-61
1.59256e-60
5.33353e-61
-1.1691e-59
3.16645e-59
-1.8058e-59
-1.45141e-58
4.83815e-58
-3.05095e-58
-2.19021e-57
6.55208e-57
-4.20825e-58
-3.73998e-56
6.81906e-56
1.03688e-55
-5.41893e-55
1.49482e-55
2.8451e-54
-3.91856e-54
-1.18878e-53
3.10731e-53
4.27855e-53
-1.8987e-52
-1.46509e-52
1.03953e-51
5.96687e-52
-5.37438e-51
-3.59703e-51
2.6336e-50
2.75569e-50
-1.1698e-49
-2.07809e-49
4.12231e-49
1.35947e-48
-5.92969e-49
-7.05338e-48
-6.10983e-48
2.38846e-47
6.36014e-47
-3.01531e-48
-2.85203e-46
-5.20989e-46
1.79249e-46
2.56573e-45
4.98014e-45
1.29546e-45
-1.65627e-44
-4.76166e-44
-6.49424e-44
-5.36266e-45
2.17431e-43
6.69537e-43
1.33942e-42
2.10276e-42
2.74394e-42
3.03818e-42
2.85693e-42
2.23689e-42
1.36977e-42
5.16182e-43
-1.07508e-43
-4.08386e-43
-4.26611e-43
-2.83727e-43
-1.09146e-43
1.37527e-44
6.2161e-44
5.59385e-44
2.83361e-44
4.19379e-45
-7.17767e-45
-7.95237e-45
-4.25092e-45
-7.11746e-46
9.02699e-46
3.41149e-72
3.00461e-75
8.48733e-72
-1.54737e-71
-1.55711e-71
5.29253e-70
-4.47102e-69
2.85798e-68
-1.57604e-67
7.82197e-67
-3.55364e-66
1.48722e-65
-5.73396e-65
2.02659e-64
-6.49563e-64
1.85009e-63
-4.49603e-63
8.42073e-63
-7.55715e-63
-2.4187e-62
1.55189e-61
-4.80555e-61
8.87522e-61
-2.49599e-61
-4.86715e-60
1.89336e-59
-3.34862e-59
-1.06043e-59
2.44005e-58
-6.64058e-58
3.85143e-58
3.02795e-57
-1.01436e-56
6.47604e-57
4.57567e-56
-1.37465e-55
9.81514e-57
7.82949e-55
-1.43273e-54
-2.16408e-54
1.13632e-53
-3.18091e-54
-5.96124e-53
8.23233e-53
2.48965e-52
-6.51958e-52
-8.9586e-52
3.98194e-51
3.06855e-51
-2.17965e-50
-1.25123e-50
1.12672e-49
7.55198e-50
-5.51983e-49
-5.78643e-49
2.45047e-48
4.36149e-48
-8.6237e-48
-2.85102e-47
1.23049e-47
1.47749e-46
1.28629e-46
-4.9915e-46
-1.33349e-45
5.45993e-47
5.96217e-45
1.09294e-44
-3.65717e-45
-5.35805e-44
-1.04356e-43
-2.80003e-44
3.44652e-43
9.94514e-43
1.36135e-42
1.2791e-43
-4.50705e-42
-1.39247e-41
-2.78871e-41
-4.3803e-41
-5.7175e-41
-6.33135e-41
-5.95355e-41
-4.66065e-41
-2.85256e-41
-1.07301e-41
2.26751e-42
8.53102e-42
8.90068e-42
5.91372e-42
2.26996e-42
-2.92431e-43
-1.29959e-42
-1.16742e-42
-5.90333e-43
-8.6474e-44
1.50395e-43
1.66109e-43
8.86153e-44
1.47043e-44
-1.89056e-44
-7.43772e-71
3.06436e-72
-2.02026e-70
4.4635e-70
-2.89247e-70
-8.10747e-69
7.97783e-68
-5.36622e-67
3.03591e-66
-1.53018e-65
7.02444e-65
-2.96198e-64
1.1486e-63
-4.07859e-63
1.31249e-62
-3.75203e-62
9.1535e-62
-1.72381e-61
1.57795e-61
4.82533e-61
-3.14587e-60
9.79475e-60
-1.81954e-59
5.45596e-60
9.86102e-59
-3.86225e-58
6.8706e-58
2.04646e-58
-4.96788e-57
1.35881e-56
-8.01753e-57
-6.16209e-56
2.07502e-55
-1.34164e-55
-9.32546e-55
2.81402e-54
-2.21876e-55
-1.59913e-53
2.93734e-53
4.40598e-53
-2.3249e-52
6.60673e-53
1.21865e-51
-1.68759e-51
-5.08709e-51
1.33469e-50
1.83009e-50
-8.14804e-50
-6.27038e-50
4.45919e-49
2.56001e-49
-2.30471e-48
-1.54707e-48
1.12879e-47
1.18557e-47
-5.00828e-47
-8.93173e-47
1.76005e-46
5.83377e-46
-2.49014e-46
-3.0196e-45
-2.64255e-45
1.01766e-44
2.72789e-44
-9.33846e-46
-1.21595e-43
-2.2371e-43
7.26679e-44
1.09155e-42
2.13354e-42
5.90629e-43
-6.99512e-42
-2.02632e-41
-2.78436e-41
-2.94558e-42
9.11015e-41
2.82451e-40
5.66324e-40
8.9003e-40
1.16207e-39
1.28699e-39
1.21017e-39
9.47192e-40
5.79433e-40
2.17542e-40
-4.6672e-41
-1.73852e-40
-1.81149e-40
-1.20232e-40
-4.60446e-41
6.06907e-42
2.6507e-41
2.37669e-41
1.19962e-41
1.73807e-42
-3.07459e-42
-3.38484e-42
-1.80193e-42
-2.96162e-43
3.86308e-43
1.57855e-69
-1.25832e-70
4.61763e-69
-1.15901e-68
1.83503e-68
1.05427e-67
-1.34944e-66
9.70961e-66
-5.66611e-65
2.90742e-64
-1.35039e-63
5.74176e-63
-2.24063e-62
7.99644e-62
-2.58426e-61
7.41653e-61
-1.81675e-60
3.44098e-60
-3.21383e-60
-9.37115e-60
6.21541e-59
-1.94633e-58
3.63763e-58
-1.16082e-58
-1.94717e-57
7.68133e-57
-1.37471e-56
-3.82746e-57
9.86039e-56
-2.71115e-55
1.62803e-55
1.22249e-54
-4.13895e-54
2.71113e-54
1.85292e-53
-5.61716e-53
4.86334e-54
3.18454e-52
-5.87246e-52
-8.74499e-52
4.63824e-51
-1.33854e-51
-2.42911e-50
3.37356e-50
1.01349e-49
-2.66439e-49
-3.64518e-49
1.62577e-48
1.24932e-48
-8.89548e-48
-5.10722e-48
4.59684e-47
3.09044e-47
-2.2508e-46
-2.3687e-46
9.98058e-46
1.78359e-45
-3.50233e-45
-1.16398e-44
4.9111e-45
6.01732e-44
5.29435e-44
-2.0228e-43
-5.44136e-43
1.48334e-44
2.41779e-42
4.46508e-42
-1.40503e-42
-2.16794e-41
-4.25321e-41
-1.21512e-41
1.38385e-40
4.02506e-40
5.55291e-40
6.558e-41
-1.79444e-39
-5.58425e-39
-1.12103e-38
-1.76283e-38
-2.30234e-38
-2.55016e-38
-2.39792e-38
-1.87647e-38
-1.14728e-38
-4.29867e-39
9.3691e-40
3.45405e-39
3.59411e-39
2.38286e-39
9.10339e-40
-1.22863e-40
-5.27112e-40
-4.717e-40
-2.37628e-40
-3.40286e-41
6.12878e-41
6.72436e-41
3.57183e-41
5.81135e-42
-7.69665e-42
-3.25978e-68
3.752e-69
-1.01615e-67
2.79505e-67
-6.10608e-67
-9.12874e-67
2.1346e-65
-1.68651e-64
1.02266e-63
-5.35872e-63
2.52224e-62
-1.0824e-61
4.25314e-61
-1.52617e-60
4.95483e-60
-1.42789e-59
3.51283e-59
-6.69325e-59
6.38064e-59
1.77017e-58
-1.19604e-57
3.76807e-57
-7.08703e-57
2.40287e-57
3.74467e-56
-1.48844e-55
2.68057e-55
6.92473e-56
-1.90665e-54
5.2712e-54
-3.22259e-54
-2.36269e-53
8.04473e-53
-5.34037e-53
-3.5869e-52
1.09263e-51
-1.03384e-52
-6.17922e-51
1.14414e-50
1.69094e-50
-9.01693e-50
2.64365e-50
4.71802e-49
-6.57209e-49
-1.96745e-48
5.18304e-48
7.07443e-48
-3.16102e-47
-2.4254e-47
1.72918e-46
9.92838e-47
-8.93422e-46
-6.01597e-46
4.37332e-45
4.61183e-45
-1.93804e-44
-3.47081e-44
6.79055e-44
2.26311e-43
-9.43279e-44
-1.16841e-42
-1.03377e-42
3.91739e-42
1.05766e-41
-2.11643e-43
-4.684e-41
-8.68444e-41
2.64107e-41
4.19491e-40
8.2619e-40
2.43668e-40
-2.66663e-39
-7.78957e-39
-1.07912e-38
-1.41276e-39
3.44184e-38
1.07535e-37
2.16155e-37
3.40116e-37
4.44347e-37
4.92244e-37
4.62849e-37
3.62124e-37
2.21278e-37
8.2732e-38
-1.83312e-38
-6.68585e-38
-6.94699e-38
-4.60045e-38
-1.75304e-38
2.42458e-39
1.02128e-38
9.12047e-39
4.58525e-39
6.48462e-40
-1.19044e-39
-1.30149e-39
-6.89719e-40
-1.11011e-40
1.49419e-40
6.54631e-67
-9.67069e-68
2.15654e-66
-6.35664e-66
1.65514e-65
-5.07362e-66
-3.07954e-64
2.79709e-63
-1.7808e-62
9.56698e-62
-4.57207e-61
1.98249e-60
-7.84918e-60
2.83326e-59
-9.24367e-59
2.67565e-58
-6.61249e-58
1.26781e-57
-1.23402e-57
-3.24937e-57
2.23999e-56
-7.10222e-56
1.34462e-55
-4.83655e-56
-7.00865e-55
2.80812e-54
-5.09034e-54
-1.20923e-54
3.58918e-53
-9.97975e-53
6.21406e-53
4.44532e-52
-1.52259e-51
1.02472e-51
6.7601e-51
-2.06964e-50
2.1314e-51
1.16745e-49
-2.17086e-49
-3.18304e-49
1.70694e-48
-5.08643e-49
-8.92297e-48
1.24684e-47
3.71888e-47
-9.81837e-47
-1.33686e-46
5.98487e-46
4.58476e-46
-3.27315e-45
-1.8794e-45
1.69086e-44
1.14042e-44
-8.27434e-44
-8.74409e-44
3.66444e-43
6.57714e-43
-1.28192e-42
-4.28471e-42
1.76313e-42
2.20915e-41
1.96591e-41
-7.38626e-41
-2.00188e-40
2.49563e-42
8.83499e-40
1.64482e-39
-4.82165e-40
-7.90248e-39
-1.56274e-38
-4.75945e-39
5.0015e-38
1.46765e-37
2.04209e-37
2.94624e-38
-6.42369e-37
-2.0155e-36
-4.0569e-36
-6.3876e-36
-8.34794e-36
-9.2491e-36
-8.69663e-36
-6.80261e-36
-4.15425e-36
-1.54968e-36
3.49331e-37
1.25996e-36
1.3072e-36
8.646e-37
3.28569e-37
-4.66099e-38
-1.92654e-37
-1.71678e-37
-8.61248e-38
-1.20182e-38
2.25154e-38
2.45247e-38
1.29649e-38
2.0628e-39
-2.8245e-39
-1.27768e-65
2.27315e-66
-4.41829e-65
1.37492e-64
-4.00478e-64
5.21565e-64
3.83132e-63
-4.39466e-62
2.9831e-61
-1.65165e-60
8.03358e-60
-3.52425e-59
1.40708e-58
-5.11187e-58
1.67663e-57
-4.87605e-57
1.21085e-56
-2.33676e-56
2.32318e-56
5.79054e-56
-4.07976e-55
1.30231e-54
-2.48258e-54
9.46095e-55
1.27563e-53
-5.15429e-53
9.407e-53
2.03242e-53
-6.57259e-52
1.83851e-51
-1.16643e-51
-8.13585e-51
2.80405e-50
-1.91396e-50
-1.23945e-49
3.81471e-49
-4.26084e-50
-2.14606e-48
4.00829e-48
5.82865e-48
-3.14424e-47
9.5268e-48
1.64201e-46
-2.30195e-46
-6.83954e-46
1.80986e-45
2.45797e-45
-1.10261e-44
-8.43242e-45
6.02875e-44
3.46169e-44
-3.1138e-43
-2.10366e-43
1.52329e-42
1.61331e-42
-6.7417e-42
-1.21282e-41
2.35453e-41
7.89366e-41
-3.20459e-41
-4.06415e-40
-3.63838e-40
1.35491e-39
3.68695e-39
-1.69957e-41
-1.6213e-38
-3.03141e-38
8.54016e-39
1.44825e-37
2.87619e-37
9.04871e-38
-9.12365e-37
-2.69013e-36
-3.76019e-36
-5.94902e-37
1.16563e-35
3.67386e-35
7.40573e-35
1.16684e-34
1.52548e-34
1.69042e-34
1.58941e-34
1.24298e-34
7.58579e-35
2.82296e-35
-6.47923e-36
-2.30996e-35
-2.39275e-35
-1.58056e-35
-5.98923e-36
8.72232e-37
3.53572e-36
3.14364e-36
1.57347e-36
2.16437e-37
-4.14358e-37
-4.49582e-37
-2.37058e-37
-3.72548e-38
5.19503e-38
2.42205e-64
-4.98756e-65
8.74364e-64
-2.84252e-63
8.95362e-63
-1.73185e-62
-3.43041e-62
6.45861e-61
-4.78869e-60
2.75187e-59
-1.3664e-58
6.07402e-58
-2.44777e-57
8.95557e-57
-2.95414e-56
8.63481e-56
-2.15519e-55
4.18771e-55
-4.25418e-55
-1.00071e-54
7.22026e-54
-2.32134e-53
4.45699e-53
-1.79743e-53
-2.2559e-52
9.19696e-52
-1.69046e-51
-3.27592e-52
1.1699e-50
-3.29313e-50
2.12975e-50
1.4473e-49
-5.02088e-49
3.47722e-49
2.20905e-48
-6.83652e-48
8.25686e-49
3.83529e-47
-7.19658e-47
-1.03744e-46
5.6313e-46
-1.73571e-46
-2.93779e-45
4.13258e-45
1.22294e-44
-3.24385e-44
-4.39364e-44
1.9751e-43
1.50782e-43
-1.07966e-42
-6.19932e-43
5.57529e-42
3.77314e-42
-2.72661e-41
-2.89429e-41
1.20589e-40
2.17457e-40
-4.20429e-40
-1.41396e-39
5.65899e-40
7.26927e-39
6.54828e-39
-2.4161e-38
-6.60225e-38
-2.36342e-40
2.8923e-37
5.43225e-37
-1.46579e-37
-2.57998e-36
-5.14674e-36
-1.67324e-36
1.61738e-35
4.79316e-35
6.73192e-35
1.16302e-35
-2.05471e-34
-6.5075e-34
-1.31381e-33
-2.07156e-33
-2.7093e-33
-3.00271e-33
-2.82324e-33
-2.20734e-33
-1.3462e-33
-4.99689e-34
1.16874e-34
4.11673e-34
4.25712e-34
2.80826e-34
1.06088e-34
-1.5877e-35
-6.30819e-35
-5.5953e-35
-2.79387e-35
-3.78409e-36
7.41402e-36
8.01149e-36
4.21284e-36
6.53366e-37
-9.28978e-37
-4.45624e-63
1.03381e-63
-1.67173e-62
5.63413e-62
-1.8805e-61
4.45851e-61
-2.48775e-62
-8.67841e-60
7.32789e-59
-4.41424e-58
2.24617e-57
-1.0137e-56
4.12783e-56
-1.52197e-55
5.05168e-55
-1.48458e-54
3.72547e-54
-7.29093e-54
7.57126e-54
1.67518e-53
-1.24056e-52
4.0188e-52
-7.77419e-52
3.31425e-52
3.87293e-51
-1.59396e-50
2.95156e-50
5.03876e-51
-2.02236e-49
5.73047e-49
-3.77948e-49
-2.50035e-48
8.73385e-48
-6.13973e-48
-3.82395e-47
1.1903e-46
-1.55039e-47
-6.65806e-46
1.25538e-45
1.79329e-45
-9.79803e-45
3.07367e-45
5.106e-44
-7.20826e-44
-2.12417e-43
5.64849e-43
7.62899e-43
-3.43718e-42
-2.61904e-42
1.87838e-41
1.07851e-41
-9.69795e-41
-6.57488e-41
4.74125e-40
5.04466e-40
-2.09539e-39
-3.78799e-39
7.29228e-39
2.46057e-38
-9.70059e-39
-1.26307e-37
-1.14516e-37
4.18476e-37
1.14856e-36
1.39248e-38
-5.0117e-36
-9.45728e-36
2.43465e-36
4.46393e-35
8.9469e-35
3.00694e-35
-2.78388e-34
-8.2947e-34
-1.17086e-33
-2.20087e-34
3.51524e-33
1.11912e-32
2.26317e-32
3.57124e-32
4.67254e-32
5.17945e-32
4.86977e-32
3.80644e-32
2.31977e-32
8.58708e-33
-2.04866e-33
-7.12583e-33
-7.35578e-33
-4.84531e-33
-1.82447e-33
2.80891e-34
1.09318e-33
9.67203e-34
4.81719e-34
6.41645e-35
-1.28871e-34
-1.3866e-34
-7.27043e-35
-1.11163e-35
1.61374e-35
7.95137e-62
-2.03808e-62
3.08782e-61
-1.07262e-60
3.74355e-60
-1.00731e-59
1.13636e-59
1.01514e-58
-1.06077e-57
6.79666e-57
-3.56222e-56
1.636e-55
-6.74021e-55
2.5065e-54
-8.37575e-54
2.47579e-53
-6.24863e-53
1.23212e-52
-1.30848e-52
-2.71278e-52
2.06738e-51
-6.75148e-51
1.31633e-50
-5.92661e-51
-6.44868e-50
2.68091e-49
-5.00278e-49
-7.34344e-50
3.39218e-48
-9.67891e-48
6.51322e-48
4.19115e-47
-1.47462e-46
1.05272e-46
6.42331e-46
-2.01163e-45
2.8193e-46
1.12177e-44
-2.12584e-44
-3.00775e-44
1.65472e-43
-5.28584e-44
-8.6134e-43
1.22052e-42
3.58087e-42
-9.54723e-42
-1.28564e-41
5.80599e-41
4.41519e-41
-3.17204e-40
-1.82116e-40
1.63737e-39
1.11211e-39
-8.00221e-39
-8.53507e-39
3.5339e-38
6.40504e-38
-1.22753e-37
-4.15622e-37
1.61264e-37
2.13008e-36
1.94422e-36
-7.03379e-36
-1.93943e-35
-4.08173e-37
8.42751e-35
1.59817e-34
-3.90764e-35
-7.49472e-34
-1.50958e-33
-5.24705e-34
4.6482e-33
1.3929e-32
1.97662e-32
4.03007e-33
-5.83114e-32
-1.86684e-31
-3.78194e-31
-5.97282e-31
-7.81806e-31
-8.66779e-31
-8.14937e-31
-6.36818e-31
-3.87798e-31
-1.43131e-31
3.48661e-32
1.19692e-31
1.23322e-31
8.11089e-32
3.04349e-32
-4.82581e-33
-1.83846e-32
-1.62227e-32
-8.05796e-33
-1.05406e-33
2.17418e-33
2.3288e-33
1.21735e-33
1.83294e-34
-2.72076e-34
-1.37479e-60
3.83677e-61
-5.50855e-60
1.96342e-59
-7.10031e-59
2.08408e-58
-3.73044e-58
-8.92805e-58
1.43514e-56
-1.00059e-55
5.43865e-55
-2.54937e-54
1.06434e-53
-3.99567e-53
1.34506e-52
-4.00085e-52
1.01596e-51
-2.01919e-51
2.19387e-51
4.2437e-51
-3.33831e-50
1.09959e-49
-2.16156e-49
1.02697e-49
1.04034e-48
-4.37162e-48
8.22401e-48
1.00293e-48
-5.51552e-47
1.5853e-46
-1.08899e-46
-6.80982e-46
2.41433e-45
-1.75115e-45
-1.046e-44
3.29687e-44
-4.96184e-45
-1.83256e-43
3.49129e-43
4.89007e-43
-2.70994e-42
8.81977e-43
1.40894e-41
-2.00431e-41
-5.85325e-41
1.56492e-40
2.10072e-40
-9.51057e-40
-7.21702e-40
5.1945e-39
2.98198e-39
-2.68077e-38
-1.82422e-38
1.30969e-37
1.40043e-37
-5.77925e-37
-1.05029e-36
2.0035e-36
6.80794e-36
-2.59727e-36
-3.48329e-35
-3.20161e-35
1.1462e-34
3.17574e-34
9.6456e-36
-1.37396e-33
-2.61908e-33
6.05013e-34
1.21987e-32
2.46987e-32
8.88252e-33
-7.52113e-32
-2.2676e-31
-3.23586e-31
-7.13706e-32
9.36891e-31
3.01765e-30
6.12493e-30
9.68173e-30
1.26786e-29
1.40593e-29
1.32181e-29
1.0326e-29
6.28297e-30
2.3117e-30
-5.75599e-31
-1.94906e-30
-2.00418e-30
-1.31599e-30
-4.91973e-31
8.04393e-32
2.99762e-31
2.63769e-31
1.30639e-31
1.67557e-32
-3.55689e-32
-3.79178e-32
-1.97567e-32
-2.92573e-33
4.44801e-33
2.30123e-59
-6.91351e-60
9.48699e-59
-3.45737e-58
1.28701e-57
-4.02586e-57
9.0149e-57
1.41356e-57
-1.77634e-55
1.40101e-54
-7.97351e-54
3.8293e-53
-1.6231e-52
6.15809e-52
-2.08979e-51
6.25822e-51
-1.5996e-50
3.20569e-50
-3.56516e-50
-6.40251e-50
5.21754e-49
-1.73439e-48
3.43898e-48
-1.72286e-48
-1.62435e-47
6.90428e-47
-1.30989e-46
-1.25951e-47
8.68429e-46
-2.51542e-45
1.76481e-45
1.07142e-44
-3.82932e-44
2.82332e-44
1.64961e-43
-5.2346e-43
8.44558e-44
2.89982e-42
-5.55536e-42
-7.69877e-42
4.29943e-41
-1.42648e-41
-2.23254e-40
3.18903e-40
9.26781e-40
-2.48509e-39
-3.32489e-39
1.50925e-38
1.14269e-38
-8.24074e-38
-4.72995e-38
4.25194e-37
2.89896e-37
-2.07651e-36
-2.22621e-36
9.15548e-36
1.66853e-35
-3.16734e-35
-1.08033e-34
4.04821e-35
5.5179e-34
5.10863e-34
-1.809e-33
-5.0377e-33
-2.02176e-34
2.16955e-32
4.15822e-32
-9.01855e-33
-1.92288e-31
-3.91468e-31
-1.45736e-31
1.17811e-30
3.57515e-30
5.13182e-30
1.22164e-30
-1.45638e-29
-4.72172e-29
-9.60324e-29
-1.51944e-28
-1.99073e-28
-2.20799e-28
-2.07582e-28
-1.62114e-28
-9.85524e-29
-3.61383e-29
9.20864e-30
3.07378e-29
3.15404e-29
2.06741e-29
7.69805e-30
-1.29961e-30
-4.7339e-30
-4.15309e-30
-2.05063e-30
-2.57419e-31
5.63695e-31
5.97914e-31
3.10464e-31
4.51541e-32
-7.04408e-32
-3.72545e-58
1.19399e-58
-1.57638e-57
5.85709e-57
-2.23341e-56
7.33493e-56
-1.88084e-55
1.82908e-55
1.92387e-54
-1.85169e-53
1.119e-52
-5.5333e-52
2.38674e-51
-9.16352e-51
3.13745e-50
-9.46483e-50
2.43616e-49
-4.92519e-49
5.60937e-49
9.299e-49
-7.88384e-48
2.6465e-47
-5.2953e-47
2.79554e-47
2.45175e-46
-1.05496e-45
2.01934e-45
1.40002e-46
-1.32264e-44
3.86242e-44
-2.76923e-44
-1.63049e-43
5.87743e-43
-4.40729e-43
-2.51673e-42
8.04324e-42
-1.38912e-42
-4.43989e-41
8.55559e-41
1.17241e-40
-6.60104e-40
2.23405e-40
3.42317e-39
-4.91096e-39
-1.41991e-38
3.81916e-38
5.09185e-38
-2.31779e-37
-1.75062e-37
1.26515e-36
7.26001e-37
-6.52625e-36
-4.4584e-36
3.18598e-35
3.42495e-35
-1.40352e-34
-2.5653e-34
4.84488e-34
1.65903e-33
-6.09913e-34
-8.45827e-33
-7.89035e-33
2.76222e-32
7.73345e-32
3.89431e-33
-3.31447e-31
-6.38909e-31
1.2913e-31
2.9322e-30
6.00418e-30
2.31505e-30
-1.78443e-29
-5.45293e-29
-7.87598e-29
-2.01959e-29
2.18767e-28
7.14333e-28
1.45604e-27
2.30613e-27
3.02301e-27
3.35367e-27
3.15284e-27
2.46143e-27
1.49493e-27
5.46188e-28
-1.42619e-28
-4.68957e-28
-4.8012e-28
-3.14123e-28
-1.16464e-28
2.03306e-29
7.23289e-29
6.32539e-29
3.11299e-29
3.81673e-30
-8.64472e-30
-9.12103e-30
-4.71866e-30
-6.72922e-31
1.07944e-30
5.82678e-57
-1.97764e-57
2.52525e-56
-9.54375e-56
3.71393e-55
-1.26762e-54
3.56237e-54
-5.89117e-54
-1.60755e-53
2.2831e-52
-1.49724e-51
7.67417e-51
-3.37846e-50
1.31465e-49
-4.54563e-49
1.38229e-48
-3.58464e-48
7.31444e-48
-8.5355e-48
-1.29743e-47
1.15027e-46
-3.90206e-46
7.88231e-46
-4.38273e-46
-3.5729e-45
1.55771e-44
-3.0096e-44
-1.24648e-45
1.94623e-43
-5.7327e-43
4.20268e-43
2.39717e-42
-8.71959e-42
6.65384e-42
3.71007e-41
-1.19466e-40
2.20584e-41
6.56991e-40
-1.27381e-39
-1.72492e-39
9.79641e-39
-3.3842e-39
-5.07316e-38
7.31134e-38
2.10253e-37
-5.67379e-37
-7.53632e-37
3.44073e-36
2.59204e-36
-1.87748e-35
-1.07707e-35
9.68262e-35
6.62809e-35
-4.72495e-34
-5.09367e-34
2.07961e-33
3.81264e-33
-7.16226e-33
-2.46273e-32
8.87124e-33
1.25318e-31
1.17829e-31
-4.07575e-31
-1.14755e-30
-7.0092e-32
4.89329e-30
9.48957e-30
-1.77104e-30
-4.32042e-29
-8.90125e-29
-3.55659e-29
2.61031e-28
8.03642e-28
1.1684e-27
3.22182e-28
-3.1713e-27
-1.0436e-26
-2.13225e-26
-3.38087e-26
-4.43434e-26
-4.92054e-26
-4.62575e-26
-3.61003e-26
-2.1903e-26
-7.97103e-27
2.13587e-27
6.91349e-27
7.06106e-27
4.61056e-27
1.70152e-27
-3.07609e-28
-1.06794e-27
-9.30802e-28
-4.56478e-28
-5.45315e-29
1.28142e-28
1.34447e-28
6.92815e-29
9.66974e-30
-1.5988e-29
-8.7943e-56
3.14188e-56
-3.89644e-55
1.495e-54
-5.91991e-54
2.08471e-53
-6.26057e-53
1.32067e-52
4.30878e-53
-2.57316e-51
1.89976e-50
-1.01876e-49
4.59463e-49
-1.81549e-48
6.34648e-48
-1.94684e-47
5.08949e-47
-1.04872e-46
1.25458e-46
1.73466e-46
-1.61832e-45
5.55218e-45
-1.13288e-44
6.63122e-45
5.02018e-44
-2.21985e-43
4.33114e-43
5.3434e-45
-2.76335e-42
8.21434e-42
-6.16137e-42
-3.40045e-41
1.24885e-40
-9.70379e-41
-5.27797e-40
1.71315e-39
-3.37818e-40
-9.38402e-39
1.83125e-38
2.4487e-38
-1.40358e-37
4.9527e-38
7.25791e-37
-1.05104e-36
-3.00526e-36
8.13812e-36
1.07668e-35
-4.93123e-35
-3.70455e-35
2.68986e-34
1.54254e-34
-1.38688e-33
-9.51337e-34
6.76489e-33
7.31413e-33
-2.97466e-32
-5.47093e-32
1.02201e-31
3.52945e-31
-1.244e-31
-1.7924e-30
-1.69921e-30
5.80421e-30
1.64396e-29
1.18923e-30
-6.9725e-29
-1.36081e-28
2.3187e-29
6.1433e-28
1.27395e-27
5.27799e-28
-3.68288e-27
-1.14299e-26
-1.6734e-26
-4.95494e-27
4.43018e-26
1.47035e-25
3.01191e-25
4.78135e-25
6.27502e-25
6.96483e-25
6.54735e-25
5.10771e-25
3.09556e-25
1.12175e-25
-3.08936e-26
-9.83595e-26
-1.00201e-25
-6.52869e-26
-2.39738e-26
4.49615e-27
1.52189e-26
1.32168e-26
6.45726e-27
7.49494e-28
-1.83372e-27
-1.91252e-27
-9.814e-28
-1.33771e-28
2.28595e-28
1.27922e-54
-4.78641e-55
5.7849e-54
-2.24972e-53
9.04385e-53
-3.26836e-52
1.03224e-51
-2.51447e-51
2.1168e-51
2.54322e-50
-2.26856e-49
1.2902e-48
-5.99025e-48
2.4091e-47
-8.52543e-47
2.64042e-46
-6.96291e-46
1.4497e-45
-1.77891e-45
-2.21585e-45
2.19228e-44
-7.6135e-44
1.57004e-43
-9.67098e-44
-6.79089e-43
3.04899e-42
-6.01061e-42
1.08132e-43
3.7806e-41
-1.1348e-40
8.71464e-41
4.64761e-40
-1.72444e-39
1.36526e-39
7.23594e-39
-2.36864e-38
4.98389e-39
1.29204e-37
-2.53865e-37
-3.34942e-37
1.93886e-36
-6.99348e-37
-1.00102e-35
1.45702e-35
4.14093e-35
-1.1255e-34
-1.48274e-34
6.81416e-34
5.10369e-34
-3.71559e-33
-2.12974e-33
1.91524e-32
1.31655e-32
-9.33804e-32
-1.01268e-31
4.10208e-31
7.56954e-31
-1.40578e-30
-4.87693e-30
1.67931e-30
2.47152e-29
2.36323e-29
-7.96666e-29
-2.27068e-28
-1.91142e-29
9.57605e-28
1.88156e-27
-2.88506e-28
-8.41835e-27
-1.75783e-26
-7.55625e-27
5.00457e-26
1.56668e-25
2.31075e-25
7.33832e-26
-5.95458e-25
-1.99493e-24
-4.09795e-24
-6.51383e-24
-8.55433e-24
-9.49734e-24
-8.92777e-24
-6.9618e-24
-4.21421e-24
-1.52004e-24
4.31016e-25
1.34864e-24
1.37011e-24
8.90651e-25
3.25282e-25
-6.34037e-26
-2.09038e-25
-1.80842e-25
-8.79938e-26
-9.89061e-27
2.52985e-26
2.62193e-26
1.33936e-26
1.77846e-27
-3.15094e-27
-1.79086e-53
6.9879e-54
-8.2541e-53
3.24918e-52
-1.32352e-51
4.88856e-51
-1.60635e-50
4.30713e-50
-6.60112e-50
-1.97e-49
2.52004e-48
-1.55221e-47
7.46787e-47
-3.06571e-46
1.10001e-45
-3.44303e-45
9.16521e-45
-1.92933e-44
2.42988e-44
2.69442e-44
-2.85496e-43
1.00464e-42
-2.09509e-42
1.35765e-42
8.82955e-42
-4.03034e-41
8.0322e-41
-3.98852e-42
-4.97644e-40
1.5093e-39
-1.1875e-39
-6.11111e-39
2.29237e-38
-1.8505e-38
-9.54593e-38
3.15307e-37
-7.07432e-38
-1.71232e-36
3.38887e-36
4.40776e-36
-2.5785e-35
9.51503e-36
1.32907e-34
-1.94498e-34
-5.4923e-34
1.4987e-33
1.96547e-33
-9.06561e-33
-6.76786e-33
4.94133e-32
2.83063e-32
-2.54638e-31
-1.75416e-31
1.24096e-30
1.35001e-30
-5.44575e-30
-1.00839e-29
1.86125e-29
6.48804e-29
-2.17881e-29
-3.28076e-28
-3.16532e-28
1.05237e-27
3.01955e-27
2.91818e-28
-1.26578e-26
-2.50486e-26
3.39137e-27
1.11009e-25
2.33508e-25
1.04218e-25
-6.53957e-25
-2.06647e-24
-3.07202e-24
-1.04531e-24
7.6874e-24
2.60237e-23
5.36215e-23
8.53532e-23
1.12171e-22
1.24574e-22
1.17098e-22
9.12708e-23
5.51777e-23
1.98013e-23
-5.79214e-24
-1.77949e-23
-1.80248e-23
-1.16879e-23
-4.24347e-24
8.61421e-25
2.7634e-24
2.38081e-24
1.15336e-24
1.25046e-25
-3.36008e-25
-3.45902e-25
-1.75839e-25
-2.26786e-26
4.18103e-26
2.40927e-52
-9.7682e-53
1.13032e-51
-4.49858e-51
1.85393e-50
-6.97656e-50
2.36702e-49
-6.79941e-49
1.35247e-48
6.20361e-49
-2.55337e-47
1.76416e-46
-8.87557e-46
3.73302e-45
-1.36068e-44
4.30906e-44
-1.15882e-43
2.4681e-43
-3.19243e-43
-3.10426e-43
3.56792e-42
-1.27362e-41
2.68775e-41
-1.83191e-41
-1.1015e-40
5.11897e-40
-1.03199e-39
8.54118e-41
6.29211e-39
-1.92953e-38
1.55658e-38
7.71773e-38
-2.9291e-37
2.41267e-37
1.20985e-36
-4.03477e-36
9.64776e-37
2.18086e-35
-4.34937e-35
-5.57136e-35
3.29623e-34
-1.24549e-34
-1.69604e-33
2.4963e-33
7.00103e-33
-1.91848e-32
-2.50376e-32
1.15939e-31
8.62466e-32
-6.31686e-31
-3.61589e-31
3.2543e-30
2.24671e-30
-1.5852e-29
-1.73012e-29
6.94888e-29
1.29139e-28
-2.36827e-28
-8.29713e-28
2.71216e-28
4.18585e-27
4.07671e-27
-1.33577e-26
-3.85985e-26
-4.23755e-27
1.60774e-25
3.20567e-25
-3.73433e-26
-1.40636e-24
-2.98158e-24
-1.38269e-24
8.20346e-24
2.61872e-23
3.92589e-23
1.43019e-23
-9.51433e-23
-3.25831e-22
-6.73633e-22
-1.07392e-21
-1.41244e-21
-1.56913e-21
-1.47491e-21
-1.14903e-21
-6.93664e-22
-2.47545e-22
7.48589e-23
2.25588e-22
2.27773e-22
1.47297e-22
5.31337e-23
-1.12586e-23
-3.51027e-23
-3.01088e-23
-1.45164e-23
-1.51087e-24
4.28961e-24
4.38429e-24
2.21706e-24
2.76771e-25
-5.3323e-25
-3.10955e-51
1.30591e-51
-1.48329e-50
5.96271e-50
-2.48295e-49
9.49553e-49
-3.30793e-48
1.00094e-47
-2.31552e-47
1.68978e-47
2.26908e-46
-1.8796e-45
1.00199e-44
-4.33854e-44
1.61019e-43
-5.16619e-43
1.40488e-42
-3.02971e-42
4.02748e-42
3.36748e-42
-4.27074e-41
1.54846e-40
-3.3092e-40
2.37199e-40
1.31585e-39
-6.23614e-39
1.27264e-38
-1.49443e-39
-7.62806e-38
2.36706e-37
-1.95946e-37
-9.34444e-37
3.59129e-36
-3.02081e-36
-1.4705e-35
4.95465e-35
-1.2622e-35
-2.66469e-34
5.35779e-34
6.75174e-34
-4.04349e-33
1.56594e-33
2.07663e-32
-3.07524e-32
-8.56188e-32
2.35686e-31
3.05977e-31
-1.4229e-30
-1.05438e-30
7.7492e-30
4.43166e-30
-3.99103e-29
-2.76136e-29
1.9431e-28
2.12789e-28
-8.50813e-28
-1.58715e-27
2.89101e-27
1.01824e-26
-3.23278e-27
-5.12445e-26
-5.04024e-26
1.6263e-25
4.73479e-25
5.8552e-26
-1.95885e-24
-3.93721e-24
3.8014e-25
1.70874e-23
3.65316e-23
1.76171e-23
-9.86044e-23
-3.18273e-22
-4.81455e-22
-1.87667e-22
1.12649e-21
3.90817e-21
8.10989e-21
1.29508e-20
1.70475e-20
1.89456e-20
1.78072e-20
1.38652e-20
8.35738e-21
2.96414e-21
-9.28932e-22
-2.74279e-21
-2.75981e-21
-1.77947e-21
-6.37351e-22
1.41321e-22
4.27721e-22
3.6512e-22
1.75124e-22
1.73954e-23
-5.2548e-23
-5.32963e-23
-2.6798e-23
-3.22456e-24
6.52513e-24
3.84323e-50
-1.66737e-50
1.86211e-49
-7.55427e-49
3.17509e-48
-1.23149e-47
4.38646e-47
-1.38243e-46
3.53302e-46
-5.02019e-46
-1.59656e-45
1.85569e-44
-1.06961e-43
4.79859e-43
-1.81859e-42
5.92092e-42
-1.62985e-41
3.56204e-41
-4.86994e-41
-3.40916e-41
4.88578e-40
-1.80198e-39
3.90297e-39
-2.94198e-39
-1.50198e-38
7.27282e-38
-1.50353e-37
2.3121e-38
8.84941e-37
-2.78116e-36
2.36452e-36
1.08254e-35
-4.21713e-35
3.62557e-35
1.71068e-34
-5.82777e-34
1.58142e-34
3.11755e-33
-6.32304e-33
-7.82916e-33
4.75079e-32
-1.88774e-32
-2.435e-31
3.62963e-31
1.00265e-30
-2.77355e-30
-3.58033e-30
1.67269e-29
1.23418e-29
-9.10542e-29
-5.20123e-29
4.68807e-28
3.25071e-28
-2.28129e-27
-2.50693e-27
9.97703e-27
1.86853e-26
-3.37939e-26
-1.19693e-25
3.68189e-26
6.0083e-25
5.97092e-25
-1.89563e-24
-5.56317e-24
-7.69623e-25
2.28499e-23
4.63215e-23
-3.49617e-24
-1.98728e-22
-4.28704e-22
-2.15175e-22
1.13332e-21
3.70271e-21
5.65546e-21
2.35776e-21
-1.27288e-20
-4.4812e-20
-9.33733e-20
-1.49387e-19
-1.96827e-19
-2.18827e-19
-2.05668e-19
-1.60045e-19
-9.63037e-20
-3.39233e-20
1.10477e-20
3.19217e-20
3.19995e-20
2.05664e-20
7.30862e-21
-1.70059e-21
-4.98969e-21
-4.2374e-21
-2.02088e-21
-1.90192e-22
6.16527e-22
6.20167e-22
3.09899e-22
3.57606e-23
-7.64699e-23
-4.53936e-49
2.02974e-49
-2.232e-48
9.13134e-48
-3.8703e-47
1.51994e-46
-5.5174e-46
1.79679e-45
-4.9299e-45
9.23449e-45
5.24678e-45
-1.66539e-43
1.07333e-42
-5.03362e-42
1.95513e-41
-6.47175e-41
1.8055e-40
-4.0027e-40
5.63258e-40
3.17723e-40
-5.32934e-39
2.00286e-38
-4.40056e-38
3.48839e-38
1.63417e-37
-8.10246e-37
1.69828e-36
-3.26007e-37
-9.80271e-36
3.12321e-35
-2.72974e-35
-1.19732e-34
4.73293e-34
-4.16282e-34
-1.90066e-33
6.55224e-33
-1.89395e-33
-3.4851e-32
7.13448e-32
8.66763e-32
-5.33519e-31
2.17763e-31
2.72864e-30
-4.09604e-30
-1.12199e-29
3.12014e-29
4.00292e-29
-1.87958e-28
-1.38028e-28
1.02267e-27
5.83334e-28
-5.26369e-27
-3.65769e-27
2.56002e-26
2.82332e-26
-1.1182e-25
-2.10286e-25
3.77482e-25
1.34491e-24
-3.99727e-25
-6.73285e-24
-6.76392e-24
2.11093e-23
6.24804e-23
9.61542e-24
-2.54657e-22