/*--------------------------------*- C++ -*----------------------------------*\
  =========                 |
  \\      /  F ield         | OpenFOAM: The Open Source CFD Toolbox
   \\    /   O peration     | Website:  https://openfoam.org
    \\  /    A nd           | Version:  13
     \\/     M anipulation  |
\*---------------------------------------------------------------------------*/
FoamFile
{
    format      ascii;
    class       volScalarField;
    location    "8.2";
    object      T;
}
// * * * * * * * * * * * * * * * * * * * * * * * * * * * * * * * * * * * * * //

dimensions      [0 0 0 1 0 0 0];

internalField   nonuniform List<scalar> 
10000
(
9.89375e-32
1.2017e-30
1.59607e-30
-2.77701e-30
-1.48311e-29
-1.95882e-29
3.13005e-29
1.71884e-28
2.41329e-28
-2.88459e-28
-1.84618e-27
-2.92546e-27
1.87914e-27
1.80294e-26
3.37946e-26
-1.72641e-27
-1.54409e-25
-3.58633e-25
-1.8708e-25
1.07608e-24
3.35499e-24
3.6226e-24
-4.85753e-24
-2.61324e-23
-4.42058e-23
-6.65988e-24
1.5112e-22
3.93609e-22
4.10698e-22
-4.06755e-22
-2.45251e-21
-4.64568e-21
-3.14785e-21
7.73166e-21
2.9615e-20
4.9075e-20
2.92484e-20
-7.89243e-20
-2.88127e-19
-4.92751e-19
-4.05607e-19
3.8283e-19
2.11627e-18
4.35591e-18
5.46214e-18
2.55445e-18
-7.49196e-18
-2.57598e-17
-4.81981e-17
-6.31184e-17
-5.12071e-17
1.04409e-17
1.40322e-16
3.42838e-16
6.00958e-16
8.75408e-16
1.11246e-15
1.25881e-15
1.27846e-15
1.16503e-15
9.4432e-16
6.65943e-16
3.87377e-16
1.5685e-16
1.40484e-18
-7.62294e-17
-9.23604e-17
-7.22707e-17
-4.01034e-17
-1.2304e-17
4.13337e-18
9.61127e-18
8.21874e-18
4.39548e-18
1.06785e-18
-6.926e-19
-1.08384e-18
-7.70717e-19
-3.23825e-19
-1.95957e-20
1.0692e-19
1.2618e-19
1.10834e-19
9.76188e-20
9.3539e-20
9.41302e-20
9.51932e-20
9.5522e-20
9.54483e-20
9.53644e-20
9.53527e-20
9.5364e-20
9.53684e-20
9.53674e-20
9.53666e-20
9.53666e-20
9.53667e-20
9.53667e-20
9.53667e-20
9.53667e-20
1.20169e-30
3.05022e-30
-1.979e-30
-2.06763e-29
-3.64525e-29
2.51682e-29
2.45155e-28
4.32025e-28
-2.37891e-28
-2.67462e-27
-4.99015e-27
1.29837e-27
2.64873e-26
5.52204e-26
7.10394e-27
-2.31426e-25
-5.69863e-25
-3.23063e-25
1.68089e-24
5.29437e-24
5.47957e-24
-8.61681e-24
-4.21833e-23
-6.58555e-23
6.58195e-24
2.64704e-22
6.04881e-22
4.76507e-22
-1.02496e-21
-4.12298e-21
-6.35966e-21
-1.38229e-21
1.76695e-20
4.70732e-20
5.77827e-20
-5.95624e-21
-1.89435e-19
-4.42259e-19
-5.27512e-19
-3.59893e-20
1.36464e-18
3.42663e-18
4.80357e-18
3.03077e-18
-4.45287e-18
-1.81568e-17
-3.40721e-17
-4.25266e-17
-3.00207e-17
1.55736e-17
9.82638e-17
2.09275e-16
3.28016e-16
4.29595e-16
4.9584e-16
5.23879e-16
5.26895e-16
5.25814e-16
5.36232e-16
5.58198e-16
5.75145e-16
5.62909e-16
5.03705e-16
3.97001e-16
2.61253e-16
1.25982e-16
1.90074e-17
-4.4214e-17
-6.42874e-17
-5.4111e-17
-3.09675e-17
-9.05904e-18
4.34631e-18
8.63292e-18
7.01046e-18
3.36064e-18
2.8035e-19
-1.34538e-18
-1.78016e-18
-1.64889e-18
-1.42587e-18
-1.30081e-18
-1.27278e-18
-1.28444e-18
-1.29688e-18
-1.30061e-18
-1.29978e-18
-1.2987e-18
-1.29847e-18
-1.29859e-18
-1.29866e-18
-1.29866e-18
-1.29865e-18
-1.29865e-18
-1.29865e-18
-1.29865e-18
-1.29865e-18
-1.29865e-18
-1.29865e-18
-1.29865e-18
1.59607e-30
-1.979e-30
-1.37776e-29
-2.0622e-29
2.65786e-29
1.70484e-28
2.54563e-28
-2.89718e-28
-1.96429e-27
-3.10969e-27
2.45944e-27
2.08561e-26
3.69332e-26
-1.20003e-26
-1.99882e-25
-4.14908e-25
-7.60789e-26
1.66238e-24
4.26549e-24
2.96372e-24
-1.10102e-23
-3.8561e-23
-4.69382e-23
4.30531e-23
2.89125e-22
5.27031e-22
1.62583e-22
-1.58967e-21
-4.44573e-21
-5.00792e-21
3.67663e-21
2.64728e-20
5.1972e-20
3.78972e-20
-7.88992e-20
-3.16588e-19
-5.28407e-19
-3.17255e-19
8.27885e-19
2.99711e-18
5.01301e-18
3.88237e-18
-4.36033e-18
-2.14856e-17
-4.19995e-17
-4.89905e-17
-1.58154e-17
8.18349e-17
2.43483e-16
4.18954e-16
4.96211e-16
3.17843e-16
-2.67758e-16
-1.33291e-15
-2.80542e-15
-4.44799e-15
-5.90505e-15
-6.80967e-15
-6.91151e-15
-6.17127e-15
-4.77837e-15
-3.08289e-15
-1.47182e-15
-2.43674e-16
4.68275e-16
7.00891e-16
6.05424e-16
3.66038e-16
1.30672e-16
-2.26048e-17
-8.20477e-17
-7.5995e-17
-4.29477e-17
-1.14745e-17
6.16896e-18
1.04194e-17
7.22925e-18
2.32578e-18
-1.23732e-18
-2.8851e-18
-3.26388e-18
-3.15578e-18
-3.0096e-18
-2.94885e-18
-2.94616e-18
-2.95662e-18
-2.96169e-18
-2.96178e-18
-2.96089e-18
-2.96059e-18
-2.96066e-18
-2.96073e-18
-2.96073e-18
-2.96072e-18
-2.96072e-18
-2.96072e-18
-2.96072e-18
-2.96072e-18
-2.96072e-18
-2.96072e-18
-2.77701e-30
-2.06763e-29
-2.0622e-29
6.32408e-29
2.53726e-28
2.51581e-28
-7.27143e-28
-2.95009e-27
-3.17561e-27
7.18205e-27
3.20722e-26
4.02412e-26
-5.72562e-26
-3.20533e-25
-4.89552e-25
2.91851e-25
2.85611e-24
5.47444e-24
7.10051e-25
-2.14347e-23
-5.40082e-23
-4.13789e-23
1.18066e-22
4.47311e-22
6.18633e-22
-2.15357e-22
-2.84724e-21
-6.12638e-21
-4.60297e-21
1.05924e-20
4.21151e-20
6.71963e-20
2.35751e-20
-1.64546e-19
-4.85533e-19
-6.84075e-19
-1.87567e-19
1.63389e-18
4.67608e-18
6.96703e-18
4.07769e-18
-9.44191e-18
-3.53977e-17
-6.46857e-17
-7.12653e-17
-1.41946e-17
1.45436e-16
4.11133e-16
7.10001e-16
8.64098e-16
5.98857e-16
-3.94805e-16
-2.34989e-15
-5.29722e-15
-8.97664e-15
-1.28363e-14
-1.61428e-14
-1.81783e-14
-1.84608e-14
-1.69024e-14
-1.38439e-14
-9.94815e-15
-5.99487e-15
-2.65521e-15
-3.27689e-16
9.14732e-16
1.26628e-15
1.06092e-15
6.35921e-16
2.35904e-16
-2.10113e-17
-1.23516e-16
-1.19997e-16
-7.16827e-17
-2.32535e-17
5.69494e-18
1.48293e-17
1.23837e-17
6.64819e-18
2.23361e-18
1.96426e-19
-2.22618e-19
-4.13128e-20
1.57639e-19
2.29621e-19
2.25806e-19
2.09925e-19
2.04037e-19
2.04787e-19
2.06107e-19
2.06364e-19
2.06204e-19
2.06126e-19
2.06138e-19
2.06151e-19
2.06151e-19
2.06149e-19
2.06149e-19
2.0615e-19
2.0615e-19
-1.48311e-29
-3.64525e-29
2.65785e-29
2.53726e-28
4.35399e-28
-3.35774e-28
-3.00911e-27
-5.16918e-27
3.22353e-27
3.2875e-26
5.99114e-26
-1.92134e-26
-3.26447e-25
-6.65983e-25
-5.40584e-26
2.86512e-24
6.90805e-24
3.66035e-24
-2.09777e-23
-6.45352e-23
-6.48096e-23
1.09704e-22
5.17437e-22
7.92428e-22
-1.16989e-22
-3.27564e-21
-7.35575e-21
-5.5908e-21
1.29535e-20
5.06087e-20
7.68073e-20
1.3957e-20
-2.20047e-19
-5.75844e-19
-6.94671e-19
1.02442e-19
2.35278e-18
5.40962e-18
6.34976e-18
1.88569e-19
-1.7027e-17
-4.20597e-17
-5.82321e-17
-3.54003e-17
5.72837e-17
2.24962e-16
4.17129e-16
5.14365e-16
3.51924e-16
-2.1559e-16
-1.23133e-15
-2.58021e-15
-4.0031e-15
-5.19214e-15
-5.92827e-15
-6.18714e-15
-6.14647e-15
-6.07994e-15
-6.19174e-15
-6.48696e-15
-6.75681e-15
-6.69095e-15
-6.05323e-15
-4.8205e-15
-3.20848e-15
-1.57643e-15
-2.69776e-16
5.13697e-16
7.72766e-16
6.59262e-16
3.82178e-16
1.15673e-16
-4.9503e-17
-1.03905e-16
-8.55858e-17
-4.16462e-17
-4.02337e-18
1.61057e-17
2.16887e-17
2.02481e-17
1.75839e-17
1.60615e-17
1.57093e-17
1.58449e-17
1.5995e-17
1.60411e-17
1.60315e-17
1.60185e-17
1.60155e-17
1.6017e-17
1.60179e-17
1.60179e-17
1.60178e-17
1.60177e-17
1.60178e-17
1.60178e-17
1.60178e-17
1.60178e-17
1.60178e-17
1.60178e-17
-1.95882e-29
2.51682e-29
1.70484e-28
2.51581e-28
-3.35774e-28
-2.10373e-27
-3.1017e-27
3.64984e-27
2.418e-26
3.78746e-26
-3.10338e-26
-2.56178e-25
-4.49777e-25
1.5463e-25
2.45021e-24
5.05108e-24
8.66678e-25
-2.03381e-23
-5.18838e-23
-3.56678e-23
1.34455e-22
4.68347e-22
5.67787e-22
-5.25355e-22
-3.5038e-21
-6.37397e-21
-1.9592e-21
1.91997e-20
5.36487e-20
6.04586e-20
-4.3998e-20
-3.18207e-19
-6.25362e-19
-4.58538e-19
9.39661e-19
3.78981e-18
6.34207e-18
3.85404e-18
-9.78871e-18
-3.57071e-17
-5.99459e-17
-4.69183e-17
5.06448e-17
2.54175e-16
4.99146e-16
5.85686e-16
1.98127e-16
-9.52807e-16
-2.86504e-15
-4.95094e-15
-5.89324e-15
-3.83853e-15
3.00021e-15
1.54784e-14
3.27513e-14
5.20316e-14
6.91398e-14
7.97619e-14
8.09551e-14
7.22582e-14
5.58996e-14
3.59958e-14
1.70954e-14
2.70477e-15
-5.61459e-15
-8.30231e-15
-7.14202e-15
-4.30211e-15
-1.52206e-15
2.82669e-16
9.77938e-16
9.00907e-16
5.07155e-16
1.33956e-16
-7.45545e-17
-1.24218e-16
-8.58656e-17
-2.74299e-17
1.49456e-17
3.45188e-17
3.9008e-17
3.77171e-17
3.59783e-17
3.52565e-17
3.5225e-17
3.53495e-17
3.54099e-17
3.54108e-17
3.54003e-17
3.53967e-17
3.53975e-17
3.53983e-17
3.53984e-17
3.53982e-17
3.53982e-17
3.53982e-17
3.53982e-17
3.53982e-17
3.53982e-17
3.53982e-17
3.13005e-29
2.45155e-28
2.54563e-28
-7.27143e-28
-3.00911e-27
-3.1017e-27
8.35275e-27
3.49555e-26
3.89266e-26
-8.2101e-26
-3.79306e-25
-4.893e-25
6.46091e-25
3.77977e-24
5.90367e-24
-3.13655e-24
-3.35368e-23
-6.55279e-23
-1.12574e-23
2.50009e-22
6.4214e-22
5.11413e-22
-1.35744e-21
-5.28292e-21
-7.4467e-21
2.20859e-21
3.33406e-20
7.28718e-20
5.66132e-20
-1.21475e-19
-4.96286e-19
-8.02982e-19
-3.04706e-19
1.90953e-18
5.73423e-18
8.1822e-18
2.46648e-18
-1.89848e-17
-5.51803e-17
-8.30395e-17
-5.01343e-17
1.08676e-16
4.16196e-16
7.66495e-16
8.524e-16
1.87932e-16
-1.69253e-15
-4.83897e-15
-8.39802e-15
-1.02697e-14
-7.2034e-15
4.4685e-15
2.75182e-14
6.23237e-14
1.05812e-13
1.51446e-13
1.90534e-13
2.14573e-13
2.17856e-13
1.99359e-13
1.63137e-13
1.17056e-13
7.03554e-14
3.09665e-14
3.58026e-15
-1.09721e-14
-1.50159e-14
-1.25167e-14
-7.46305e-15
-2.73638e-15
2.82635e-16
1.47418e-15
1.41837e-15
8.41032e-16
2.68364e-16
-7.12334e-17
-1.7639e-16
-1.4564e-16
-7.70665e-17
-2.47611e-17
-7.86016e-19
4.06624e-18
1.88373e-18
-4.68639e-19
-1.31151e-18
-1.26239e-18
-1.07448e-18
-1.00557e-18
-1.01473e-18
-1.03031e-18
-1.03328e-18
-1.03138e-18
-1.03047e-18
-1.0306e-18
-1.03076e-18
-1.03076e-18
-1.03074e-18
-1.03074e-18
-1.03074e-18
-1.03074e-18
1.71884e-28
4.32025e-28
-2.89718e-28
-2.95009e-27
-5.16918e-27
3.64984e-27
3.49554e-26
6.13763e-26
-3.42677e-26
-3.8112e-25
-7.10252e-25
1.84957e-25
3.77061e-24
7.87031e-24
1.05495e-24
-3.2881e-23
-8.12583e-23
-4.68146e-23
2.37791e-22
7.54343e-22
7.9001e-22
-1.20351e-21
-5.99402e-21
-9.45851e-21
6.66906e-22
3.73619e-20
8.64774e-20
7.0171e-20
-1.41432e-19
-5.84983e-19
-9.18241e-19
-2.37596e-19
2.45955e-18
6.70952e-18
8.45024e-18
-2.99414e-19
-2.63328e-17
-6.31809e-17
-7.7769e-17
-1.13127e-17
1.86697e-16
4.87273e-16
7.05185e-16
4.88426e-16
-5.46992e-16
-2.5175e-15
-4.91111e-15
-6.38957e-15
-4.99242e-15
1.17985e-15
1.30232e-14
2.97081e-14
4.86721e-14
6.6498e-14
8.03228e-14
8.90287e-14
9.3496e-14
9.57177e-14
9.72767e-14
9.81282e-14
9.64747e-14
8.98528e-14
7.67872e-14
5.80079e-14
3.65032e-14
1.63843e-14
1.21915e-15
-7.27391e-15
-9.57392e-15
-7.73428e-15
-4.26425e-15
-1.13027e-15
7.19318e-16
1.2643e-15
9.93099e-16
4.60755e-16
2.59147e-17
-1.97112e-16
-2.5245e-16
-2.30617e-16
-1.98106e-16
-1.80484e-16
-1.76764e-16
-1.78541e-16
-1.80318e-16
-1.8083e-16
-1.80702e-16
-1.80548e-16
-1.80516e-16
-1.80534e-16
-1.80545e-16
-1.80545e-16
-1.80543e-16
-1.80543e-16
-1.80543e-16
-1.80543e-16
-1.80543e-16
-1.80543e-16
-1.80543e-16
-1.80543e-16
2.41329e-28
-2.37891e-28
-1.96429e-27
-3.17561e-27
3.22354e-27
2.418e-26
3.89265e-26
-3.42678e-26
-2.76266e-25
-4.6937e-25
2.68144e-25
2.89791e-24
5.47786e-24
-8.25439e-25
-2.73019e-23
-6.0301e-23
-1.91962e-23
2.21346e-22
6.06251e-22
4.86897e-22
-1.3997e-21
-5.34519e-21
-7.02561e-21
4.65955e-21
3.88429e-20
7.50743e-20
3.24636e-20
-2.02752e-19
-6.08623e-19
-7.39939e-19
3.64113e-19
3.45906e-18
7.17537e-18
5.91112e-18
-9.1317e-18
-4.14055e-17
-7.27522e-17
-5.07234e-17
9.55665e-17
3.86286e-16
6.77158e-16
5.78999e-16
-4.4514e-16
-2.67651e-15
-5.47416e-15
-6.70191e-15
-2.88858e-15
9.27188e-15
3.00482e-14
5.34219e-14
6.54134e-14
4.60577e-14
-2.4143e-14
-1.54835e-13
-3.37395e-13
-5.42178e-13
-7.24371e-13
-8.37573e-13
-8.50103e-13
-7.5704e-13
-5.82464e-13
-3.7073e-13
-1.70674e-13
-1.96769e-14
6.5997e-14
9.1643e-14
7.68578e-14
4.50942e-14
1.49047e-14
-4.2046e-15
-1.11624e-14
-9.87194e-15
-5.36263e-15
-1.26241e-15
9.47467e-16
1.40802e-15
9.32608e-16
2.69709e-16
-1.96567e-16
-4.05689e-16
-4.50071e-16
-4.33798e-16
-4.14478e-16
-4.06888e-16
-4.06775e-16
-4.08191e-16
-4.08828e-16
-4.08819e-16
-4.08701e-16
-4.08665e-16
-4.08675e-16
-4.08683e-16
-4.08683e-16
-4.08682e-16
-4.08682e-16
-4.08682e-16
-4.08682e-16
-4.08682e-16
-4.08682e-16
-4.08682e-16
-2.8846e-28
-2.67463e-27
-3.10969e-27
7.18206e-27
3.28751e-26
3.78747e-26
-8.21011e-26
-3.8112e-25
-4.69371e-25
7.91345e-25
4.11416e-24
5.78281e-24
-5.90265e-24
-4.06365e-23
-6.82553e-23
2.25242e-23
3.55562e-22
7.41741e-22
2.30245e-22
-2.58788e-21
-7.12234e-21
-6.42625e-21
1.32711e-20
5.73262e-20
8.64745e-20
-1.04393e-20
-3.50706e-19
-8.14032e-19
-7.10282e-19
1.17004e-18
5.36275e-18
9.16504e-18
4.47427e-18
-1.93763e-17
-6.27221e-17
-9.42399e-17
-3.84927e-17
1.93918e-16
6.03976e-16
9.48758e-16
6.45865e-16
-1.06177e-15
-4.50315e-15
-8.5943e-15
-9.96119e-15
-3.09059e-15
1.75209e-14
5.29222e-14
9.40718e-14
1.1769e-13
8.70357e-14
-3.99595e-14
-2.95733e-13
-6.85716e-13
-1.17582e-12
-1.69198e-12
-2.1349e-12
-2.40718e-12
-2.44344e-12
-2.2322e-12
-1.82034e-12
-1.29832e-12
-7.71736e-13
-3.30521e-13
-2.68994e-14
1.31202e-13
1.71554e-13
1.39907e-13
8.14724e-14
2.82956e-14
-4.82405e-15
-1.72429e-14
-1.59177e-14
-9.12754e-15
-2.69242e-15
9.86615e-16
2.02561e-15
1.5911e-15
7.86667e-16
1.96729e-16
-6.54065e-17
-1.14397e-16
-8.80678e-17
-6.18182e-17
-5.28321e-17
-5.35828e-17
-5.56853e-17
-5.64172e-17
-5.63005e-17
-5.61289e-17
-5.60989e-17
-5.61206e-17
-5.61303e-17
-5.61286e-17
-5.61269e-17
-5.61269e-17
-5.61272e-17
-5.61272e-17
-5.61271e-17
-5.61271e-17
-1.84618e-27
-4.99015e-27
2.45944e-27
3.20722e-26
5.99115e-26
-3.10338e-26
-3.79306e-25
-7.10252e-25
2.68143e-25
4.11416e-24
8.16993e-24
-8.10141e-25
-4.03108e-23
-8.96418e-23
-2.43479e-23
3.45577e-22
9.13434e-22
6.33944e-22
-2.41742e-21
-8.33898e-21
-9.63687e-21
1.11306e-20
6.47622e-20
1.09791e-19
1.1306e-20
-3.88278e-19
-9.68095e-19
-8.99475e-19
1.30621e-18
6.29108e-18
1.06479e-17
4.47349e-18
-2.4361e-17
-7.34831e-17
-1.01188e-16
-1.82711e-17
2.62405e-16
6.95012e-16
9.39991e-16
3.3676e-16
-1.77043e-15
-5.2633e-15
-8.31909e-15
-7.06562e-15
3.25035e-15
2.51595e-14
5.47503e-14
7.85519e-14
7.423e-14
1.65467e-14
-1.12806e-13
-3.15798e-13
-5.74249e-13
-8.54461e-13
-1.11851e-12
-1.33633e-12
-1.49205e-12
-1.58176e-12
-1.60551e-12
-1.56028e-12
-1.43974e-12
-1.24148e-12
-9.76788e-13
-6.75355e-13
-3.8045e-13
-1.35797e-13
2.92008e-14
1.08357e-13
1.17692e-13
8.60096e-14
4.25276e-14
7.47719e-15
-1.11389e-14
-1.51064e-14
-1.08095e-14
-4.49295e-15
2.04153e-16
2.38807e-15
2.76916e-15
2.40995e-15
2.01706e-15
1.82557e-15
1.7936e-15
1.81781e-15
1.83805e-15
1.84311e-15
1.84132e-15
1.83958e-15
1.83928e-15
1.83951e-15
1.83962e-15
1.83962e-15
1.83959e-15
1.83959e-15
1.83959e-15
1.8396e-15
1.83959e-15
1.83959e-15
1.83959e-15
1.83959e-15
-2.92547e-27
1.29837e-27
2.08561e-26
4.02412e-26
-1.92134e-26
-2.56178e-25
-4.893e-25
1.84958e-25
2.89791e-24
5.78281e-24
-8.10146e-25
-2.98271e-23
-6.5552e-23
-1.2983e-23
2.72393e-22
6.96786e-22
4.15271e-22
-2.09425e-21
-6.73473e-21
-6.96197e-21
1.18048e-20
5.67354e-20
8.68413e-20
-1.98114e-20
-3.8814e-19
-8.51458e-19
-5.68381e-19
1.8064e-18
6.42411e-18
8.99716e-18
-9.1776e-19
-3.33502e-17
-7.7752e-17
-7.78553e-17
6.43319e-17
4.06009e-16
7.90078e-16
6.86325e-16
-6.93694e-16
-3.72273e-15
-7.15456e-15
-7.13263e-15
2.10186e-15
2.43494e-14
5.46231e-14
7.27245e-14
4.36803e-14
-6.84728e-14
-2.72542e-13
-5.16978e-13
-6.70988e-13
-5.41228e-13
6.65481e-14
1.25517e-12
2.95141e-12
4.87604e-12
6.59899e-12
7.67159e-12
7.78677e-12
6.89766e-12
5.23928e-12
3.24214e-12
1.37649e-12
-3.40753e-15
-7.51615e-13
-9.31392e-13
-7.40862e-13
-4.09328e-13
-1.12553e-13
6.49839e-14
1.20869e-13
9.86312e-14
4.9461e-14
8.26451e-15
-1.22155e-14
-1.50315e-14
-9.11082e-15
-2.01965e-15
2.66523e-15
4.62937e-15
4.96491e-15
4.75575e-15
4.55752e-15
4.48903e-15
4.49309e-15
4.50831e-15
4.51413e-15
4.5136e-15
4.51236e-15
4.51206e-15
4.51219e-15
4.51227e-15
4.51227e-15
4.51225e-15
4.51225e-15
4.51225e-15
4.51225e-15
4.51225e-15
4.51225e-15
4.51225e-15
1.87914e-27
2.64873e-26
3.69332e-26
-5.72562e-26
-3.26447e-25
-4.49777e-25
6.46091e-25
3.77061e-24
5.47786e-24
-5.90265e-24
-4.03108e-23
-6.5552e-23
3.71651e-23
3.91452e-22
7.47968e-22
-5.16155e-24
-3.33096e-21
-7.85211e-21
-4.28982e-21
2.30373e-20
7.27843e-20
7.95728e-20
-1.02717e-19
-5.62561e-19
-9.55756e-19
-1.53301e-19
3.23275e-18
8.43206e-18
8.79257e-18
-8.67713e-18
-5.22302e-17
-9.85922e-17
-6.61678e-17
1.64715e-16
6.25667e-16
1.02994e-15
6.02239e-16
-1.67455e-15
-6.03566e-15
-1.02391e-14
-8.30173e-15
8.18551e-15
4.40317e-14
8.98477e-14
1.1167e-13
5.06395e-14
-1.56122e-13
-5.2879e-13
-9.82695e-13
-1.27923e-12
-1.02828e-12
2.28652e-13
2.85717e-12
6.93729e-12
1.212e-11
1.76146e-11
2.23473e-11
2.52575e-11
2.5633e-11
2.33517e-11
1.89305e-11
1.33588e-11
7.78181e-12
3.16157e-12
3.96809e-14
-1.52594e-12
-1.85769e-12
-1.45918e-12
-8.1377e-13
-2.52793e-13
8.10534e-14
1.93923e-13
1.67128e-13
9.00972e-14
2.23784e-14
-1.3808e-14
-2.21098e-14
-1.58983e-14
-6.81147e-15
-5.66037e-16
2.05678e-15
2.46986e-15
2.15966e-15
1.88702e-15
1.80149e-15
1.81305e-15
1.83499e-15
1.8419e-15
1.84042e-15
1.83868e-15
1.83843e-15
1.83866e-15
1.83875e-15
1.83873e-15
1.83872e-15
1.83872e-15
1.83872e-15
1.83872e-15
1.83872e-15
1.83872e-15
1.80294e-26
5.52205e-26
-1.20003e-26
-3.20533e-25
-6.65983e-25
1.5463e-25
3.77977e-24
7.87031e-24
-8.25432e-25
-4.06365e-23
-8.96418e-23
-1.29831e-23
3.91451e-22
9.68174e-22
4.67138e-22
-3.25366e-21
-9.6608e-21
-8.48885e-21
2.13407e-20
8.58447e-20
1.14245e-19
-7.85275e-20
-6.41813e-19
-1.216e-18
-4.2235e-19
3.59172e-18
1.01581e-17
1.12578e-17
-9.2883e-18
-6.18884e-17
-1.17469e-16
-7.54515e-17
2.05557e-16
7.44572e-16
1.16272e-15
5.26911e-16
-2.24709e-15
-7.08704e-15
-1.09045e-14
-6.74083e-15
1.36434e-14
5.21316e-14
9.34249e-14
9.80251e-14
9.37873e-15
-2.17333e-13
-5.68332e-13
-9.25212e-13
-1.04875e-12
-6.16417e-13
6.85236e-13
3.04249e-12
6.41973e-12
1.05317e-11
1.48958e-11
1.89403e-11
2.21221e-11
2.40155e-11
2.43614e-11
2.30902e-11
2.03361e-11
1.64424e-11
1.19348e-11
7.44076e-12
3.55841e-12
7.1278e-13
-9.42531e-13
-1.5346e-12
-1.38838e-12
-8.91592e-13
-3.67127e-13
-5.55268e-16
1.63126e-13
1.72635e-13
1.08607e-13
3.70028e-14
-9.65774e-15
-2.78113e-14
-2.81786e-14
-2.26552e-14
-1.80864e-14
-1.61626e-14
-1.59741e-14
-1.62944e-14
-1.65123e-14
-1.65553e-14
-1.6531e-14
-1.65124e-14
-1.65102e-14
-1.65128e-14
-1.6514e-14
-1.65139e-14
-1.65136e-14
-1.65136e-14
-1.65136e-14
-1.65136e-14
-1.65136e-14
-1.65136e-14
-1.65136e-14
-1.65136e-14
3.37946e-26
7.10396e-27
-1.99883e-25
-4.89552e-25
-5.40586e-26
2.45021e-24
5.90367e-24
1.05495e-24
-2.73019e-23
-6.82553e-23
-2.43479e-23
2.72393e-22
7.47968e-22
4.67137e-22
-2.35281e-21
-7.61147e-21
-7.32206e-21
1.62313e-20
6.9756e-20
9.52909e-20
-6.66412e-20
-5.49076e-19
-1.03142e-18
-2.67702e-19
3.38858e-18
9.10143e-18
8.96754e-18
-1.22143e-17
-6.18458e-17
-1.04975e-16
-3.62097e-17
2.7297e-16
7.80941e-16
9.88148e-16
-1.31297e-16
-3.44871e-15
-7.97279e-15
-8.92811e-15
1.93426e-15
3.06571e-14
6.93589e-14
8.44468e-14
1.86702e-14
-1.77409e-13
-4.82151e-13
-7.3467e-13
-6.20117e-13
2.27087e-13
1.98186e-12
4.32157e-12
6.22335e-12
6.06391e-12
2.12306e-12
-6.61743e-12
-1.97108e-11
-3.494e-11
-4.87546e-11
-5.73935e-11
-5.82696e-11
-5.09988e-11
-3.75853e-11
-2.16623e-11
-7.13948e-12
3.13e-12
8.10653e-12
8.51517e-12
6.15562e-12
2.98949e-12
4.299e-13
-9.3659e-13
-1.21869e-12
-8.74468e-13
-3.73492e-13
-4.57279e-15
1.51675e-13
1.4835e-13
7.73394e-14
7.12227e-15
-3.47522e-14
-5.01251e-14
-5.1363e-14
-4.87643e-14
-4.69266e-14
-4.64388e-14
-4.65581e-14
-4.67102e-14
-4.67527e-14
-4.67409e-14
-4.6729e-14
-4.67273e-14
-4.67289e-14
-4.67296e-14
-4.67295e-14
-4.67293e-14
-4.67294e-14
-4.67294e-14
-4.67294e-14
-4.67294e-14
-4.67294e-14
-4.67294e-14
-1.7264e-27
-2.31426e-25
-4.14909e-25
2.91851e-25
2.86512e-24
5.05108e-24
-3.13655e-24
-3.2881e-23
-6.0301e-23
2.25241e-23
3.45577e-22
6.96786e-22
-5.16138e-24
-3.25366e-21
-7.61148e-21
-3.22249e-21
2.62303e-20
7.61467e-20
6.75742e-20
-1.62272e-19
-6.69056e-19
-9.33281e-19
4.66353e-19
4.83248e-18
9.82932e-18
5.18242e-18
-2.46075e-17
-7.91185e-17
-1.03043e-16
3.21204e-17
4.42457e-16
9.77188e-16
9.04393e-16
-1.02962e-15
-5.52369e-15
-1.04283e-14
-8.56108e-15
1.09171e-14
5.34311e-14
1.01887e-13
1.00909e-13
-3.64369e-14
-3.7528e-13
-8.53955e-13
-1.16832e-12
-7.41695e-13
1.09922e-12
4.67696e-12
9.32723e-12
1.28511e-11
1.14566e-11
5.21981e-13
-2.38046e-11
-6.26167e-11
-1.12706e-10
-1.66334e-10
-2.12786e-10
-2.41386e-10
-2.44944e-10
-2.22263e-10
-1.78627e-10
-1.24051e-10
-7.00058e-11
-2.59524e-11
3.01352e-12
1.66863e-11
1.85794e-11
1.38379e-11
7.21133e-12
1.80132e-12
-1.2022e-12
-2.0383e-12
-1.6013e-12
-7.82909e-13
-1.31871e-13
1.80697e-13
2.23726e-13
1.4107e-13
4.49809e-14
-1.5616e-14
-3.8951e-14
-4.14946e-14
-3.80487e-14
-3.54764e-14
-3.47797e-14
-3.4942e-14
-3.51504e-14
-3.52058e-14
-3.51881e-14
-3.51723e-14
-3.51707e-14
-3.5173e-14
-3.51738e-14
-3.51735e-14
-3.51734e-14
-3.51734e-14
-3.51734e-14
-3.51734e-14
-3.51734e-14
-3.51734e-14
-1.54409e-25
-5.69863e-25
-7.60793e-26
2.85611e-24
6.90806e-24
8.66685e-25
-3.35368e-23
-8.12583e-23
-1.91963e-23
3.55562e-22
9.13435e-22
4.15272e-22
-3.33096e-21
-9.6608e-21
-7.32207e-21
2.62303e-20
9.36897e-20
1.05865e-19
-1.51265e-19
-8.01313e-19
-1.26861e-18
2.49441e-19
5.65741e-18
1.24918e-17
8.00917e-18
-2.814e-17
-9.73155e-17
-1.31367e-16
3.19811e-17
5.39563e-16
1.1982e-15
1.08681e-15
-1.3286e-15
-6.78677e-15
-1.24023e-14
-9.27939e-15
1.5095e-14
6.51512e-14
1.17272e-13
1.04561e-13
-6.86671e-14
-4.59152e-13
-9.68002e-13
-1.23175e-12
-6.27944e-13
1.49569e-12
5.34151e-12
1.00596e-11
1.33077e-11
1.13059e-11
-4.09486e-13
-2.56227e-11
-6.58709e-11
-1.19256e-10
-1.80149e-10
-2.39997e-10
-2.89071e-10
-3.18665e-10
-3.23166e-10
-3.01444e-10
-2.57197e-10
-1.98142e-10
-1.34215e-10
-7.52249e-11
-2.86347e-11
1.89533e-12
1.67648e-11
1.95088e-11
1.51326e-11
8.37942e-12
2.53436e-12
-9.53419e-13
-2.12894e-12
-1.82457e-12
-9.78831e-13
-2.28178e-13
1.85738e-13
3.00413e-13
2.58806e-13
1.84064e-13
1.34715e-13
1.17328e-13
1.17346e-13
1.21241e-13
1.23401e-13
1.23688e-13
1.23385e-13
1.23203e-13
1.23193e-13
1.23223e-13
1.23233e-13
1.23231e-13
1.23228e-13
1.23228e-13
1.23229e-13
1.23229e-13
1.23229e-13
1.23229e-13
1.23229e-13
1.23229e-13
-3.58633e-25
-3.23063e-25
1.66238e-24
5.47444e-24
3.66035e-24
-2.03381e-23
-6.5528e-23
-4.68146e-23
2.21346e-22
7.41741e-22
6.33945e-22
-2.09425e-21
-7.85211e-21
-8.48885e-21
1.62313e-20
7.61466e-20
1.05865e-19
-8.47753e-20
-6.53828e-19
-1.17862e-18
-5.85597e-20
4.67797e-18
1.12974e-17
8.30433e-18
-2.40943e-17
-8.89413e-17
-1.21847e-16
3.56375e-17
5.24316e-16
1.13045e-15
8.95588e-16
-1.68988e-15
-7.05447e-15
-1.14997e-14
-5.22408e-15
2.33573e-14
7.25697e-14
1.05999e-13
4.48202e-14
-1.94223e-13
-5.97057e-13
-9.22617e-13
-6.58892e-13
7.81555e-13
3.55252e-12
6.70964e-12
7.84105e-12
3.57266e-12
-8.74387e-12
-2.85638e-11
-5.01436e-11
-6.26128e-11
-5.31373e-11
-1.26187e-11
5.84204e-11
1.46994e-10
2.30182e-10
2.82847e-10
2.87486e-10
2.41638e-10
1.59169e-10
6.47119e-11
-1.60793e-11
-6.58271e-11
-8.02538e-11
-6.7037e-11
-4.02209e-11
-1.34815e-11
4.62379e-12
1.19521e-11
1.11099e-11
6.51236e-12
1.88022e-12
-9.18264e-13
-1.73031e-12
-1.31278e-12
-5.27097e-13
9.73276e-14
4.13314e-13
4.99048e-13
4.8395e-13
4.54217e-13
4.39437e-13
4.37484e-13
4.39538e-13
4.40907e-13
4.41097e-13
4.40909e-13
4.40808e-13
4.4081e-13
4.40828e-13
4.40832e-13
4.4083e-13
4.40829e-13
4.40829e-13
4.40829e-13
4.40829e-13
4.40829e-13
4.40829e-13
4.40829e-13
-1.8708e-25
1.68089e-24
4.26549e-24
7.10055e-25
-2.09777e-23
-5.18839e-23
-1.12575e-23
2.37791e-22
6.06251e-22
2.30246e-22
-2.41742e-21
-6.73474e-21
-4.28982e-21
2.13407e-20
6.9756e-20
6.75742e-20
-1.51265e-19
-6.53828e-19
-8.96506e-19
6.48269e-19
5.29372e-18
9.97476e-18
2.44698e-18
-3.38641e-17
-9.1105e-17
-8.93821e-17
1.28912e-16
6.4573e-16
1.09894e-15
3.57346e-16
-3.01048e-15
-8.62268e-15
-1.09345e-14
1.91196e-15
4.06531e-14
9.45575e-14
1.06283e-13
-2.86651e-14
-3.94769e-13
-9.02321e-13
-1.11031e-12
-2.1089e-13
2.57636e-12
7.08147e-12
1.10143e-11
9.38246e-12
-4.33027e-12
-3.4416e-11
-7.71143e-11
-1.15071e-10
-1.15851e-10
-3.79167e-11
1.55298e-10
4.76992e-10
9.01976e-10
1.36348e-09
1.7665e-09
2.01525e-09
2.04496e-09
1.84515e-09
1.46405e-09
9.92119e-10
5.31585e-10
1.64762e-10
-6.66907e-11
-1.65236e-10
-1.65472e-10
-1.14435e-10
-5.34133e-11
-7.55848e-12
1.52903e-11
1.93256e-11
1.34578e-11
5.60129e-12
1.01838e-13
-2.1101e-12
-2.02698e-12
-1.04964e-12
-1.3114e-13
3.8811e-13
5.62724e-13
5.66963e-13
5.32208e-13
5.11043e-13
5.06669e-13
5.0866e-13
5.10392e-13
5.10728e-13
5.10535e-13
5.10412e-13
5.1041e-13
5.1043e-13
5.10435e-13
5.10433e-13
5.10431e-13
5.10432e-13
5.10432e-13
5.10432e-13
5.10432e-13
5.10432e-13
1.07608e-24
5.29438e-24
2.96372e-24
-2.14347e-23
-6.45352e-23
-3.56679e-23
2.50009e-22
7.54344e-22
4.86898e-22
-2.58788e-21
-8.33898e-21
-6.96198e-21
2.30373e-20
8.58448e-20
9.5291e-20
-1.62272e-19
-8.01313e-19
-1.17862e-18
6.48268e-19
6.48961e-18
1.26945e-17
3.75573e-18
-4.18349e-17
-1.147e-16
-1.13048e-16
1.64093e-16
8.17097e-16
1.37235e-15
3.83386e-16
-3.91898e-15
-1.08799e-14
-1.32453e-14
3.88606e-15
5.29744e-14
1.18156e-13
1.25292e-13
-5.42785e-14
-5.14704e-13
-1.12431e-12
-1.32e-12
-1.15299e-13
3.39128e-12
8.89588e-12
1.35207e-11
1.11765e-11
-6.02449e-12
-4.34158e-11
-9.69881e-11
-1.46625e-10
-1.53294e-10
-6.39416e-11
1.74583e-10
5.95318e-10
1.19136e-09
1.90487e-09
2.63138e-09
3.24101e-09
3.61139e-09
3.66203e-09
3.37844e-09
2.81732e-09
2.09058e-09
1.33378e-09
6.69736e-10
1.79497e-10
-1.10649e-10
-2.24077e-10
-2.15244e-10
-1.46377e-10
-6.82563e-11
-1.04487e-11
1.84645e-11
2.4016e-11
1.71443e-11
7.5178e-12
5.20347e-13
-2.58446e-12
-2.89369e-12
-2.0471e-12
-1.17882e-12
-7.02674e-13
-5.68009e-13
-5.88222e-13
-6.30071e-13
-6.49019e-13
-6.50048e-13
-6.4675e-13
-6.45172e-13
-6.45201e-13
-6.45499e-13
-6.45582e-13
-6.45552e-13
-6.45532e-13
-6.45533e-13
-6.45536e-13
-6.45536e-13
-6.45536e-13
-6.45536e-13
-6.45536e-13
-6.45536e-13
3.35499e-24
5.47958e-24
-1.10102e-23
-5.40082e-23
-6.48097e-23
1.34455e-22
6.4214e-22
7.90011e-22
-1.3997e-21
-7.12234e-21
-9.63687e-21
1.18048e-20
7.27843e-20
1.14245e-19
-6.66411e-20
-6.69056e-19
-1.26861e-18
-5.85598e-20
5.29372e-18
1.26945e-17
8.00025e-18
-3.27623e-17
-1.09514e-16
-1.30957e-16
1.11477e-16
7.61723e-16
1.40253e-15
5.71266e-16
-3.65679e-15
-1.07837e-14
-1.33287e-14
4.31409e-15
5.45194e-14
1.17816e-13
1.12304e-13
-9.34044e-14
-5.67836e-13
-1.10383e-12
-1.04181e-12
5.83787e-13
4.29952e-12
8.92666e-12
1.05447e-11
3.02748e-12
-1.86856e-11
-5.28743e-11
-8.55448e-11
-8.96484e-11
-3.28101e-11
1.06779e-10
3.22762e-10
5.72019e-10
7.84081e-10
8.88967e-10
8.52077e-10
6.97428e-10
5.03496e-10
3.69687e-10
3.68498e-10
5.08332e-10
7.27591e-10
9.23884e-10
1.00282e-09
9.20677e-10
6.99933e-10
4.12694e-10
1.4417e-10
-4.33197e-11
-1.29144e-10
-1.31149e-10
-8.74118e-11
-3.53374e-11
1.83473e-12
1.77038e-11
1.74094e-11
9.89131e-12
2.19527e-12
-2.54548e-12
-4.30988e-12
-4.38648e-12
-3.97737e-12
-3.67676e-12
-3.5821e-12
-3.59419e-12
-3.621e-12
-3.63159e-12
-3.6309e-12
-3.62855e-12
-3.62783e-12
-3.62803e-12
-3.62822e-12
-3.62823e-12
-3.6282e-12
-3.62819e-12
-3.6282e-12
-3.6282e-12
-3.6282e-12
-3.6282e-12
-3.6282e-12
-3.6282e-12
3.6226e-24
-8.61681e-24
-3.85611e-23
-4.1379e-23
1.09704e-22
4.68348e-22
5.11413e-22
-1.20351e-21
-5.34519e-21
-6.42625e-21
1.11306e-20
5.67354e-20
7.95729e-20
-7.85275e-20
-5.49077e-19
-9.33281e-19
2.4944e-19
4.67797e-18
9.97476e-18
3.75573e-18
-3.27623e-17
-9.33699e-17
-9.01328e-17
1.55938e-16
7.2599e-16
1.14343e-15
7.93622e-18
-4.22731e-15
-1.02482e-14
-9.67916e-15
1.25675e-14
6.40376e-14
1.13573e-13
6.44771e-14
-2.12915e-13
-7.29199e-13
-1.12539e-12
-5.3023e-13
2.08318e-12
6.72027e-12
1.06384e-11
7.41246e-12
-1.09869e-11
-4.74074e-11
-8.92361e-11
-1.00631e-10
-2.7127e-11
1.78874e-10
5.12704e-10
8.68778e-10
1.01895e-09
6.48305e-10
-5.41408e-10
-2.68679e-09
-5.63662e-09
-8.91494e-09
-1.1816e-08
-1.36152e-08
-1.38196e-08
-1.23518e-08
-9.58427e-09
-6.20702e-09
-2.9857e-09
-5.15706e-10
9.30806e-10
1.41806e-09
1.24034e-09
7.62802e-10
2.83749e-10
-3.49602e-11
-1.64242e-10
-1.57716e-10
-9.23667e-11
-2.72628e-11
1.08125e-11
2.12619e-11
1.56094e-11
5.66304e-12
-1.91938e-12
-5.60526e-12
-6.56197e-12
-6.3962e-12
-6.09117e-12
-5.95071e-12
-5.93747e-12
-5.9583e-12
-5.97e-12
-5.97083e-12
-5.96901e-12
-5.96827e-12
-5.96838e-12
-5.96853e-12
-5.96854e-12
-5.96852e-12
-5.96852e-12
-5.96852e-12
-5.96852e-12
-5.96852e-12
-5.96852e-12
-5.96852e-12
-4.85753e-24
-4.21833e-23
-4.69382e-23
1.18066e-22
5.17437e-22
5.67788e-22
-1.35744e-21
-5.99402e-21
-7.02562e-21
1.32711e-20
6.47622e-20
8.68414e-20
-1.02717e-19
-6.41813e-19
-1.03142e-18
4.66352e-19
5.65741e-18
1.12974e-17
2.44699e-18
-4.18349e-17
-1.09514e-16
-9.01328e-17
2.24241e-16
8.92864e-16
1.27469e-15
-3.35103e-16
-5.58932e-15
-1.23109e-14
-9.68825e-15
2.01663e-14
8.31625e-14
1.34815e-13
5.16041e-14
-3.18392e-13
-9.55769e-13
-1.35997e-12
-4.02652e-13
3.16043e-12
9.13337e-12
1.36622e-11
8.10326e-12
-1.81343e-11
-6.84834e-11
-1.25179e-10
-1.37839e-10
-2.78152e-11
2.78793e-10
7.87127e-10
1.35609e-09
1.64578e-09
1.13634e-09
-7.51987e-10
-4.44939e-09
-1.00014e-08
-1.6907e-08
-2.41242e-08
-3.02799e-08
-3.40405e-08
-3.45191e-08
-3.15656e-08
-2.58251e-08
-1.85373e-08
-1.11542e-08
-4.92294e-09
-5.83021e-10
1.73127e-09
2.38243e-09
1.99339e-09
1.19391e-09
4.41682e-10
-4.16444e-11
-2.34439e-10
-2.27393e-10
-1.35749e-10
-4.38829e-11
1.10562e-11
2.83651e-11
2.36439e-11
1.26575e-11
4.19945e-12
2.92528e-13
-5.12614e-13
-1.65016e-13
2.17162e-13
3.55597e-13
3.48293e-13
3.17739e-13
3.06401e-13
3.07846e-13
3.1039e-13
3.10885e-13
3.10576e-13
3.10426e-13
3.10448e-13
3.10474e-13
3.10474e-13
3.1047e-13
3.1047e-13
3.1047e-13
3.1047e-13
-2.61324e-23
-6.58556e-23
4.30531e-23
4.47311e-22
7.92429e-22
-5.25355e-22
-5.28292e-21
-9.45851e-21
4.65954e-21
5.73262e-20
1.09791e-19
-1.98113e-20
-5.62561e-19
-1.216e-18
-2.67702e-19
4.83248e-18
1.24918e-17
8.30433e-18
-3.38642e-17
-1.147e-16
-1.30957e-16
1.55938e-16
8.92864e-16
1.51183e-15
1.6328e-16
-5.33182e-15
-1.33775e-14
-1.2668e-14
1.74017e-14
8.64633e-14
1.49117e-13
6.94084e-14
-3.24926e-13
-1.01618e-12
-1.44792e-12
-3.81956e-13
3.46933e-12
9.66118e-12
1.3695e-11
6.32374e-12
-2.24007e-11
-7.26792e-11
-1.21298e-10
-1.14518e-10
1.91819e-11
3.28393e-10
7.77669e-10
1.19339e-09
1.2547e-09
5.56638e-10
-1.26079e-09
-4.36408e-09
-8.62579e-09
-1.36239e-08
-1.87434e-08
-2.33319e-08
-2.68356e-08
-2.88684e-08
-2.92169e-08
-2.78232e-08
-2.47901e-08
-2.04142e-08
-1.52064e-08
-9.84573e-09