/*--------------------------------*- C++ -*----------------------------------*\
  =========                 |
  \\      /  F ield         | OpenFOAM: The Open Source CFD Toolbox
   \\    /   O peration     | Website:  https://openfoam.org
    \\  /    A nd           | Version:  13
     \\/     M anipulation  |
\*---------------------------------------------------------------------------*/
FoamFile
{
    format      ascii;
    class       volScalarField;
    location    "5.4";
    object      T;
}
// * * * * * * * * * * * * * * * * * * * * * * * * * * * * * * * * * * * * * //

dimensions      [0 0 0 1 0 0 0];

internalField   nonuniform List<scalar> 
10000
(
9.72586e-62
-5.18049e-62
5.22685e-61
-2.23962e-60
9.91137e-60
-4.13275e-59
1.63031e-58
-6.02121e-58
2.05269e-57
-6.3026e-57
1.65711e-56
-3.23088e-56
1.3743e-56
2.71281e-55
-1.75486e-54
7.35002e-54
-2.39584e-53
6.12377e-53
-1.08932e-52
4.44586e-53
5.86373e-52
-2.75348e-51
6.96258e-51
-8.00231e-51
-1.72623e-50
1.14171e-49
-2.73864e-49
1.48246e-49
1.29687e-48
-4.77585e-48
5.29858e-48
1.55347e-47
-7.20239e-47
7.78115e-47
2.5959e-46
-1.01638e-45
4.76227e-46
5.09392e-45
-1.14896e-44
-1.12883e-44
8.19464e-44
-4.30567e-44
-4.09467e-43
6.64176e-43
1.65533e-42
-4.89977e-42
-5.82377e-42
2.91742e-41
2.0001e-41
-1.58007e-40
-8.6638e-41
8.11367e-40
5.64396e-40
-3.93131e-39
-4.43135e-39
1.7002e-38
3.29824e-38
-5.5738e-38
-2.08623e-37
4.34848e-38
1.02057e-36
1.12611e-36
-3.01329e-36
-9.67021e-36
-2.8806e-36
3.65861e-35
8.17744e-35
1.27219e-35
-3.06174e-34
-7.36383e-34
-5.36708e-34
1.47351e-33
5.71976e-33
9.8369e-33
7.19923e-33
-1.19389e-32
-5.57098e-32
-1.23999e-31
-2.04084e-31
-2.7266e-31
-3.04898e-31
-2.86357e-31
-2.20889e-31
-1.29545e-31
-4.08504e-32
2.19164e-32
4.94424e-32
4.71238e-32
2.89414e-32
9.11229e-33
-3.76317e-33
-7.96622e-33
-6.32253e-33
-2.78286e-33
-4.77663e-35
1.05504e-33
9.58787e-34
4.40451e-34
1.99631e-35
-1.29133e-34
-2.4084e-61
1.31121e-61
-1.30927e-60
5.64044e-60
-2.50787e-59
1.05211e-58
-4.18271e-58
1.56093e-57
-5.40087e-57
1.6973e-56
-4.65686e-56
1.01042e-55
-1.0857e-55
-4.28017e-55
3.62122e-54
-1.62967e-53
5.51349e-53
-1.45015e-52
2.67975e-52
-1.46339e-52
-1.28758e-51
6.38479e-51
-1.6599e-50
2.01585e-50
3.74136e-50
-2.66136e-49
6.55488e-49
-3.96446e-49
-2.98088e-48
1.1321e-47
-1.30846e-47
-3.55317e-47
1.70606e-46
-1.91213e-46
-6.00782e-46
2.41732e-45
-1.21967e-45
-1.19673e-44
2.75382e-44
2.58032e-44
-1.9458e-43
1.07087e-43
9.67472e-43
-1.59552e-42
-3.89562e-42
1.16957e-41
1.36533e-41
-6.94752e-41
-4.67845e-41
3.75952e-40
2.03534e-40
-1.92995e-39
-1.33763e-39
9.34714e-39
1.05541e-38
-4.03655e-38
-7.86345e-38
1.31686e-37
4.96746e-37
-9.62783e-38
-2.42089e-36
-2.71369e-36
7.0679e-36
2.30255e-35
7.45901e-36
-8.58946e-35
-1.95249e-34
-3.78287e-35
7.13417e-34
1.7505e-33
1.34512e-33
-3.30601e-33
-1.33308e-32
-2.34409e-32
-1.84514e-32
2.41719e-32
1.23412e-31
2.79321e-31
4.62838e-31
6.2036e-31
6.9463e-31
6.5228e-31
5.0214e-31
2.92718e-31
8.97224e-32
-5.33348e-32
-1.15237e-31
-1.08692e-31
-6.60938e-32
-2.02078e-32
9.29793e-33
1.86787e-32
1.46249e-32
6.32512e-33
-3.31338e-36
-2.50573e-33
-2.23413e-33
-1.00841e-33
-3.01485e-35
3.05972e-34
1.79976e-60
-9.8331e-61
9.80193e-60
-4.22627e-59
1.88041e-58
-7.89575e-58
3.14251e-57
-1.17446e-56
4.07195e-56
-1.28364e-55
3.54112e-55
-7.77993e-55
8.91333e-55
2.9413e-54
-2.63118e-53
1.19865e-52
-4.07954e-52
1.07779e-51
-2.00321e-51
1.13505e-51
9.45302e-51
-4.7299e-50
1.2351e-49
-1.51264e-49
-2.73999e-49
1.97324e-48
-4.88087e-48
3.00165e-48
2.20496e-47
-8.41719e-47
9.79271e-47
2.62594e-46
-1.26835e-45
1.43016e-45
4.44883e-45
-1.79842e-44
9.18441e-45
8.88478e-44
-2.05158e-43
-1.90625e-43
1.44731e-42
-8.02956e-43
-7.18988e-42
1.1893e-41
2.89291e-41
-8.70836e-41
-1.01309e-40
5.17089e-40
3.46929e-40
-2.79775e-39
-1.51019e-39
1.4362e-38
9.94158e-39
-6.95566e-38
-7.85259e-38
3.00334e-37
5.85284e-37
-9.79173e-37
-3.69709e-36
7.09341e-37
1.80088e-35
2.02324e-35
-5.24903e-35
-1.71383e-34
-5.61955e-35
6.37952e-34
1.45394e-33
2.90352e-34
-5.29206e-33
-1.30267e-32
-1.00927e-32
2.43668e-32
9.88858e-32
1.74516e-31
1.38946e-31
-1.74743e-31
-9.07381e-31
-2.05976e-30
-3.41704e-30
-4.58255e-30
-5.13234e-30
-4.81929e-30
-3.70872e-30
-2.1597e-30
-6.58672e-31
3.98398e-31
8.54748e-31
8.04789e-31
4.88553e-31
1.48613e-31
-6.96168e-32
-1.38684e-31
-1.08341e-31
-4.67175e-32
1.65651e-34
1.86434e-32
1.65709e-32
7.45757e-33
2.03553e-34
-2.27567e-33
-1.16614e-59
6.42319e-60
-6.37819e-59
2.75543e-58
-1.228e-57
5.16723e-57
-2.06199e-56
7.73307e-56
-2.69408e-55
8.55504e-55
-2.3901e-54
5.40184e-54
-7.04353e-54
-1.49495e-53
1.58412e-52
-7.45359e-52
2.57582e-51
-6.88153e-51
1.2972e-50
-7.99383e-51
-5.85195e-50
2.99548e-49
-7.90731e-49
9.88172e-49
1.68582e-48
-1.2523e-47
3.12995e-47
-2.00148e-47
-1.39134e-46
5.37787e-46
-6.35531e-46
-1.65345e-45
8.10176e-45
-9.26651e-45
-2.81492e-44
1.15069e-43
-6.04306e-44
-5.65661e-43
1.31683e-42
1.19952e-42
-9.25508e-42
5.23004e-42
4.58832e-41
-7.6423e-41
-1.84298e-40
5.58152e-40
6.44272e-40
-3.31109e-39
-2.2035e-39
1.7909e-38
9.60682e-39
-9.19268e-38
-6.34832e-38
4.45168e-37
5.02607e-37
-1.92129e-36
-3.74869e-36
6.2534e-36
2.36723e-35
-4.4206e-36
-1.15159e-34
-1.30117e-34
3.34245e-34
1.09747e-33
3.70586e-34
-4.06339e-33
-9.32068e-33
-1.99662e-33
3.36056e-32
8.33733e-32
6.58751e-32
-1.52308e-31
-6.27962e-31
-1.11805e-30
-9.14343e-31
1.03958e-30
5.63848e-30
1.28935e-29
2.14517e-29
2.8808e-29
3.22824e-29
3.03112e-29
2.33063e-29
1.35371e-29
4.07734e-30
-2.57284e-30
-5.42744e-30
-5.08842e-30
-3.07621e-30
-9.23995e-31
4.52103e-31
8.82747e-31
6.8583e-31
2.93584e-31
-3.23323e-33
-1.19272e-31
-1.05214e-31
-4.70103e-32
-9.81636e-34
1.45454e-32
7.36607e-59
-4.08969e-59
4.04571e-58
-1.75108e-57
7.81623e-57
-3.29556e-56
1.31838e-55
-4.96036e-55
1.73584e-54
-5.549e-54
1.56792e-53
-3.63085e-53
5.21458e-53
6.97474e-53
-9.28491e-52
4.52251e-51
-1.58745e-50
4.28846e-50
-8.19601e-50
5.44199e-50
3.53363e-49
-1.85169e-48
4.94123e-48
-6.29722e-48
-1.01118e-47
7.75769e-47
-1.95918e-46
1.30037e-46
8.56866e-46
-3.35408e-45
4.0254e-45
1.01603e-44
-5.05185e-44
5.86058e-44
1.73838e-43
-7.18737e-43
3.87966e-43
3.51547e-42
-8.25168e-42
-7.3647e-42
5.77773e-41
-3.32586e-41
-2.85842e-40
4.79479e-40
1.14609e-39
-3.49278e-39
-3.99898e-39
2.07002e-38
1.36574e-38
-1.11927e-37
-5.96327e-38
5.74485e-37
3.9563e-37
-2.78184e-36
-3.14015e-36
1.20013e-35
2.34397e-35
-3.9e-35
-1.47985e-34
2.69185e-35
7.19025e-34
8.16876e-34
-2.0784e-33
-6.86181e-33
-2.38265e-33
2.52724e-32
5.83403e-32
1.33305e-32
-2.08375e-31
-5.21023e-31
-4.19618e-31
9.29189e-31
3.89375e-30
6.99411e-30
5.87052e-30
-6.00478e-30
-3.41821e-29
-7.87684e-29
-1.31448e-28
-1.76776e-28
-1.9821e-28
-1.86094e-28
-1.42961e-28
-8.28149e-29
-2.46173e-29
1.62218e-29
3.36483e-29
3.14096e-29
1.89083e-29
5.60498e-30
-2.86602e-30
-5.48616e-30
-4.2387e-30
-1.80093e-30
3.37289e-32
7.45046e-31
6.52252e-31
2.893e-31
4.13791e-33
-9.07759e-32
-4.50351e-58
2.52102e-58
-2.48419e-57
1.07728e-56
-4.81627e-56
2.03479e-55
-8.16029e-55
3.08012e-54
-1.08257e-53
3.48299e-53
-9.9473e-53
2.35516e-52
-3.65977e-52
-2.75049e-52
5.23676e-51
-2.65264e-50
9.46853e-50
-2.58794e-49
5.01635e-49
-3.57321e-49
-2.06132e-48
1.10801e-47
-2.99057e-47
3.88823e-47
5.85356e-47
-4.65254e-46
1.1879e-45
-8.185e-46
-5.10673e-45
2.02603e-44
-2.47085e-44
-6.04047e-44
3.05095e-43
-3.59213e-43
-1.03907e-42
4.3486e-42
-2.41476e-42
-2.11562e-41
5.00979e-41
4.3737e-41
-3.49385e-40
2.05065e-40
1.72466e-39
-2.91507e-39
-6.90162e-39
2.11766e-38
2.40307e-38
-1.25378e-37
-8.19315e-38
6.77692e-37
3.58281e-37
-3.47823e-36
-2.38736e-36
1.68421e-35
1.90022e-35
-7.26328e-35
-1.4198e-34
2.35665e-34
8.96267e-34
-1.58724e-34
-4.34948e-33
-4.96875e-33
1.25198e-32
4.15668e-32
1.48418e-32
-1.52262e-31
-3.53817e-31
-8.60695e-32
1.25138e-30
3.15471e-30
2.59091e-30
-5.48305e-30
-2.33828e-29
-4.23943e-29
-3.65397e-29
3.32337e-29
2.00269e-28
4.65453e-28
7.79314e-28
1.04967e-27
1.17769e-27
1.10561e-27
8.48537e-28
4.90109e-28
1.43572e-28
-9.91292e-29
-2.02023e-28
-1.87706e-28
-1.12481e-28
-3.28627e-29
1.7611e-29
3.30246e-29
2.53647e-29
1.06902e-29
-2.89869e-31
-4.50899e-30
-3.9159e-30
-1.72326e-30
-1.24212e-32
5.48848e-31
2.66138e-57
-1.50258e-57
1.47463e-56
-6.40743e-56
2.86921e-55
-1.21464e-54
4.88325e-54
-1.84902e-53
6.5265e-53
-2.11284e-52
6.09556e-52
-1.47278e-51
2.4437e-51
7.28777e-52
-2.83591e-50
1.50209e-49
-5.45936e-49
1.51053e-48
-2.97059e-48
2.2611e-48
1.16e-47
-6.41031e-47
1.75096e-46
-2.32342e-46
-3.265e-46
2.69815e-45
-6.96864e-45
4.98538e-45
2.94164e-44
-1.18393e-43
1.4681e-43
3.47012e-43
-1.78252e-42
2.1314e-42
6.00394e-42
-2.54568e-41
1.45552e-41
1.23144e-40
-2.94358e-40
-2.50908e-40
2.04423e-39
-1.22464e-39
-1.00667e-38
1.71549e-38
4.01985e-38
-1.2426e-37
-1.39637e-37
7.34899e-37
4.75135e-37
-3.97088e-36
-2.08089e-36
2.03798e-35
1.39322e-35
-9.8682e-35
-1.11247e-34
4.25438e-34
8.32189e-34
-1.37831e-33
-5.25309e-33
9.05518e-34
2.54627e-32
2.92496e-32
-7.29793e-32
-2.43693e-31
-8.94639e-32
8.87677e-31
2.07683e-30
5.36839e-31
-7.27052e-30
-1.84868e-29
-1.54893e-29
3.12571e-29
1.35845e-28
2.48724e-28
2.20239e-28
-1.7556e-28
-1.13244e-27
-2.65708e-27
-4.46493e-27
-6.02408e-27
-6.76343e-27
-6.34892e-27
-4.86758e-27
-2.8025e-27
-8.07667e-28
5.86475e-28
1.17334e-27
1.08477e-27
6.46831e-28
1.85985e-28
-1.04779e-28
-1.92337e-28
-1.46797e-28
-6.13325e-29
2.22304e-30
2.64092e-29
2.27425e-29
9.92442e-30
-4.47839e-33
-3.2114e-30
-1.5175e-56
8.6444e-57
-8.4477e-56
3.67807e-55
-1.64971e-54
6.99815e-54
-2.82044e-53
1.0713e-52
-3.79722e-52
1.23667e-51
-3.60228e-51
8.86772e-51
-1.55552e-50
9.85821e-52
1.46983e-49
-8.19634e-49
3.03767e-48
-8.51367e-48
1.69933e-47
-1.37752e-47
-6.28447e-47
3.57968e-46
-9.90169e-46
1.34156e-45
1.75063e-45
-1.51058e-44
3.9491e-44
-2.93409e-44
-1.63495e-43
6.68223e-43
-8.43109e-43
-1.92289e-42
1.00592e-41
-1.22245e-41
-3.34799e-41
1.43964e-40
-8.48422e-41
-6.92167e-40
1.67128e-39
1.38787e-39
-1.15546e-38
7.07363e-39
5.67531e-38
-9.75754e-38
-2.26097e-37
7.04585e-37
7.83293e-37
-4.16231e-36
-2.65897e-36
2.2482e-35
1.16628e-35
-1.15384e-34
-7.85009e-35
5.58732e-34
6.29096e-34
-2.40817e-33
-4.71258e-33
7.79073e-33
2.97502e-32
-4.99195e-33
-1.44042e-31
-1.66382e-31
4.11044e-31
1.38061e-30
5.21059e-31
-5.00007e-30
-1.17811e-29
-3.23051e-30
4.08047e-29
1.04692e-28
8.95276e-29
-1.71841e-28
-7.62324e-28
-1.4103e-27
-1.28363e-27
8.79975e-28
6.16817e-27
1.46274e-26
2.46784e-26
3.33579e-26
3.74802e-26
3.51799e-26
2.69406e-26
1.54565e-26
4.37344e-27
-3.35432e-27
-6.58197e-27
-6.05262e-27
-3.58976e-27
-1.01405e-27
6.0272e-28
1.08213e-27
8.20365e-28
3.39528e-28
-1.5699e-29
-1.4947e-28
-1.27573e-28
-5.51696e-29
4.83047e-31
1.81568e-29
8.33151e-56
-4.79106e-56
4.66105e-55
-2.03368e-54
9.13682e-54
-3.88398e-53
1.56926e-52
-5.97926e-52
2.1281e-51
-6.9713e-51
2.04938e-50
-5.13295e-50
9.4461e-50
-3.39106e-50
-7.26194e-49
4.30056e-48
-1.62798e-47
4.62506e-47
-9.37365e-47
8.06915e-47
3.27003e-46
-1.92584e-45
5.39842e-45
-7.47212e-45
-8.99803e-45
8.14912e-44
-2.15803e-43
1.66584e-43
8.75064e-43
-3.63629e-42
4.67194e-42
1.02571e-41
-5.4732e-41
6.76593e-41
1.79825e-40
-7.85123e-40
4.7749e-40
3.75004e-39
-9.15374e-39
-7.38629e-39
6.29833e-38
-3.94558e-38
-3.08487e-37
5.35526e-37
1.22578e-36
-3.85416e-36
-4.2337e-36
2.27405e-35
1.43312e-35
-1.22782e-34
-6.29535e-35
6.30166e-34
4.26252e-34
-3.0518e-33
-3.43013e-33
1.3151e-32
2.57387e-32
-4.24886e-32
-1.62525e-31
2.65573e-32
7.86069e-31
9.12985e-31
-2.23323e-30
-7.54561e-30
-2.92726e-30
2.71658e-29
6.44761e-29
1.87278e-29
-2.2084e-28
-5.71988e-28
-4.99481e-28
9.09282e-28
4.12507e-27
7.71563e-27
7.22293e-27
-4.14982e-27
-3.2289e-26
-7.7498e-26
-1.31334e-25
-1.7789e-25
-2.00039e-25
-1.87742e-25
-1.4359e-25
-8.20594e-26
-2.274e-26
1.85163e-26
3.55987e-26
3.25471e-26
1.91908e-26
5.31481e-27
-3.34656e-27
-5.87125e-27
-4.419e-27
-1.81017e-27
1.03609e-28
8.16097e-28
6.89982e-28
2.95487e-28
-5.26076e-30
-9.90265e-29
-4.39399e-55
2.55245e-55
-2.47126e-54
1.08064e-53
-4.86347e-53
2.07184e-52
-8.39218e-52
3.2077e-51
-1.14634e-50
3.77672e-50
-1.12008e-49
2.85098e-49
-5.47117e-49
3.31358e-49
3.40275e-48
-2.16441e-47
8.38519e-47
-2.41666e-46
4.97566e-46
-4.53745e-46
-1.62968e-45
9.9602e-45
-2.83175e-44
4.00664e-44
4.41853e-44
-4.22709e-43
1.13488e-42
-9.10696e-43
-4.50006e-42
1.90393e-41
-2.49326e-41
-5.2547e-41
2.86544e-40
-3.60687e-40
-9.28261e-40
4.12086e-39
-2.59001e-39
-1.95429e-38
4.82707e-38
3.77289e-38
-3.30426e-37
2.12154e-37
1.61343e-36
-2.8307e-36
-6.39232e-36
2.02997e-35
2.20013e-35
-1.19615e-34
-7.42223e-35
6.45578e-34
3.26519e-34
-3.31355e-33
-2.22568e-33
1.60498e-32
1.79964e-32
-6.91559e-32
-1.35316e-31
2.23164e-31
8.54805e-31
-1.36155e-31
-4.13036e-30
-4.82331e-30
1.1682e-29
3.97088e-29
1.58318e-29
-1.4209e-28
-3.39797e-28
-1.04409e-28
1.15034e-27
3.00924e-27
2.68484e-27
-4.62044e-27
-2.14818e-26
-4.06517e-26
-3.91682e-26
1.81708e-26
1.6202e-25
3.94252e-25
6.71479e-25
9.1159e-25
1.02604e-24
9.6285e-25
7.35375e-25
4.18425e-25
1.13212e-25
-9.84679e-26
-1.85268e-25
-1.68327e-25
-9.8616e-26
-2.67086e-26
1.7903e-26
3.06602e-26
2.28976e-26
9.2743e-27
-6.43887e-28
-4.29035e-27
-3.59099e-27
-1.52166e-27
4.21764e-29
5.19997e-28
2.21977e-54
-1.3037e-54
1.25564e-53
-5.50372e-53
2.48146e-52
-1.05945e-51
4.30259e-51
-1.64981e-50
5.92014e-50
-1.96143e-49
5.86682e-49
-1.51607e-48
3.01937e-48
-2.46106e-48
-1.50184e-47
1.04185e-46
-4.14023e-46
1.21158e-45
-2.53557e-45
2.44459e-45
7.75303e-45
-4.93965e-44
1.42575e-43
-2.06366e-43
-2.06427e-43
2.10312e-42
-5.73014e-42
4.78384e-42
2.21769e-41
-9.56923e-41
1.27863e-40
2.57829e-40
-1.44012e-39
1.84802e-39
4.59333e-39
-2.07688e-38
1.35129e-38
9.77296e-38
-2.44536e-37
-1.84423e-37
1.66461e-36
-1.09748e-36
-8.10053e-36
1.43796e-35
3.19885e-35
-1.02721e-34
-1.09652e-34
6.04414e-34
3.6839e-34
-3.26075e-33
-1.62291e-33
1.67381e-32
1.11474e-32
-8.10946e-32
-9.0642e-32
3.49432e-31
6.83233e-31
-1.12647e-30
-4.31889e-30
6.71717e-31
2.08511e-29
2.44784e-29
-5.87092e-29
-2.00771e-28
-8.22484e-29
7.13931e-28
1.7207e-27
5.58668e-28
-5.75435e-27
-1.52121e-26
-1.38753e-26
2.24877e-26
1.07422e-25
2.05829e-25
2.04276e-25
-7.21959e-26
-7.76859e-25
-1.92066e-24
-3.28979e-24
-4.47765e-24
-5.045e-24
-4.73369e-24
-3.60964e-24
-2.04378e-24
-5.37807e-25
5.03399e-25
9.25694e-25
8.35317e-25
4.85918e-25
1.283e-25
-9.20845e-26
-1.53759e-25
-1.13867e-25
-4.55489e-26
3.78256e-27
2.167e-26
1.79435e-26
7.51617e-27
-2.90506e-28
-2.62324e-27
-1.07052e-53
6.36416e-54
-6.09415e-53
2.67804e-52
-1.20977e-51
5.17716e-51
-2.10821e-50
8.11028e-50
-2.92235e-49
9.7364e-49
-2.93646e-48
7.69762e-48
-1.58485e-47
1.5781e-47
6.18331e-47
-4.78001e-46
1.95377e-45
-5.81136e-45
1.23704e-44
-1.25888e-44
-3.50662e-44
2.34218e-43
-6.87108e-43
1.01831e-42
9.12577e-43
-1.00072e-41
2.7703e-41
-2.40868e-41
-1.04409e-40
4.60414e-40
-6.28544e-40
-1.20771e-39
6.92916e-39
-9.07762e-39
-2.17217e-38
1.00242e-37
-6.76546e-38
-4.67659e-37
1.18703e-36
8.5962e-37
-8.03139e-36
5.44952e-36
3.89357e-35
-7.00266e-35
-1.53177e-34
4.98124e-34
5.22561e-34
-2.92641e-33
-1.7467e-33
1.57808e-32
7.70511e-33
-8.10189e-32
-5.33977e-32
3.92673e-31
4.37068e-31
-1.69231e-30
-3.30448e-30
5.45135e-30
2.09086e-29
-3.1841e-30
-1.00876e-28
-1.19029e-28
2.82765e-28
9.7284e-28
4.09387e-28
-3.43723e-27
-8.35161e-27
-2.86229e-27
2.75726e-26
7.37048e-26
6.87771e-26
-1.04508e-25
-5.14482e-25
-9.99037e-25
-1.02224e-24
2.48136e-25
3.54589e-24
8.93166e-24
1.53981e-23
2.10193e-23
2.37101e-23
2.22438e-23
1.69315e-23
9.53298e-24
2.42741e-24
-2.46805e-24
-4.42888e-24
-3.96654e-24
-2.28924e-24
-5.8698e-25
4.54293e-25
7.38599e-25
5.41978e-25
2.13814e-25
-2.1039e-26
-1.04894e-25
-8.58575e-26
-3.55109e-26
1.80404e-27
1.26814e-26
4.90775e-53
-2.958e-53
2.814e-52
-1.24011e-51
5.61371e-51
-2.40838e-50
9.83527e-50
-3.79652e-49
1.37379e-48
-4.60283e-48
1.39955e-47
-3.71924e-47
7.8918e-47
-9.10592e-47
-2.33985e-46
2.0815e-45
-8.77992e-45
2.65769e-44
-5.75883e-44
6.17874e-44
1.50009e-43
-1.05802e-42
3.15906e-42
-4.79905e-42
-3.79001e-42
4.53809e-41
-1.2783e-40
1.15913e-40
4.67834e-40
-2.11372e-39
2.95287e-39
5.3791e-39
-3.18146e-38
4.26245e-38
9.78064e-38
-4.6188e-37
3.24174e-37
2.13423e-36
-5.50467e-36
-3.80386e-36
3.69952e-35
-2.59051e-35
-1.78586e-34
3.25976e-34
6.99517e-34
-2.30798e-33
-2.37277e-33
1.35358e-32
7.88088e-33
-7.2959e-32
-3.48057e-32
3.74658e-31
2.43758e-31
-1.81677e-30
-2.01109e-30
7.83275e-30
1.52619e-29
-2.52204e-29
-9.66983e-29
1.44799e-29
4.66326e-28
5.5288e-28
-1.30143e-27
-4.50426e-27
-1.94637e-27
1.58105e-26
3.87382e-26
1.40025e-26
-1.26174e-25
-3.41281e-25
-3.26059e-25
4.62057e-25
2.35283e-24
4.63503e-24
4.89499e-24
-6.43537e-25
-1.53343e-23
-3.94955e-23
-6.86055e-23
-9.39645e-23
-1.06135e-22
-9.95542e-23
-7.56235e-23
-4.23032e-23
-1.03532e-23
1.15715e-23
2.02271e-23
1.79652e-23
1.02766e-23
2.54605e-24
-2.14364e-24
-3.3881e-24
-2.46125e-24
-9.55968e-25
1.10805e-25
4.8516e-25
3.92182e-25
1.59947e-25
-1.03061e-26
-5.8574e-26
-2.12731e-52
1.30284e-52
-1.23e-51
5.43801e-51
-2.46736e-50
1.06145e-49
-4.34807e-49
1.68447e-48
-6.12231e-48
2.06303e-47
-6.32402e-47
1.70291e-46
-3.71484e-46
4.80779e-46
7.93453e-46
-8.5577e-45
3.74052e-44
-1.15398e-43
2.54792e-43
-2.88016e-43
-6.02874e-43
4.53337e-42
-1.38002e-41
2.152e-41
1.46349e-41
-1.95294e-40
5.60776e-40
-5.31312e-40
-1.98579e-39
9.2226e-39
-1.32108e-38
-2.26673e-38
1.38846e-37
-1.90657e-37
-4.17409e-37
2.02394e-36
-1.48187e-36
-9.25104e-36
2.42983e-35
1.58893e-35
-1.62082e-34
1.17523e-34
7.786e-34
-1.44549e-33
-3.0341e-33
1.01812e-32
1.02201e-32
-5.95958e-32
-3.36712e-32
3.21071e-31
1.48852e-31
-1.6493e-30
-1.0558e-30
8.00324e-30
8.79553e-30
-3.45272e-29
-6.70604e-29
1.11176e-28
4.25685e-28
-6.30742e-29
-2.05259e-27
-2.44413e-27
5.70427e-27
1.9857e-26
8.80665e-27
-6.92385e-26
-1.71116e-25
-6.51879e-26
5.49443e-25
1.50497e-24
1.47347e-24
-1.93476e-24
-1.02371e-23
-2.04847e-23
-2.23576e-23
4.26994e-25
6.24463e-23
1.65281e-22
2.89672e-22
3.98301e-22
4.50587e-22
4.22565e-22
3.20224e-22
1.77772e-22
4.14263e-23
-5.17078e-23
-8.78554e-23
-7.73059e-23
-4.37753e-23
-1.04097e-23
9.64236e-24
1.47879e-23
1.06233e-23
4.05369e-24
-5.51952e-25
-2.13664e-24
-1.70384e-24
-6.84078e-25
5.4659e-26
2.5758e-25
8.65591e-52
-5.4043e-52
5.05564e-51
-2.24364e-50
1.02068e-49
-4.40457e-49
1.81045e-48
-7.04145e-48
2.57133e-47
-8.71646e-47
2.69402e-46
-7.34892e-46
1.6451e-45
-2.33728e-45
-2.28963e-45
3.29915e-44
-1.50222e-43
4.73212e-43
-1.06598e-42
1.26942e-42
2.25521e-42
-1.83228e-41
5.69925e-41
-9.1398e-41
-5.17092e-41
7.93255e-40
-2.32748e-39
2.31002e-39
7.93696e-39
-3.80563e-38
5.60402e-38
8.97854e-38
-5.73166e-37
8.08915e-37
1.67857e-36
-8.39472e-36
6.43774e-36
3.78926e-35
-1.0164e-34
-6.21773e-35
6.72256e-34
-5.06935e-34
-3.21096e-33
6.08025e-33
1.24353e-32
-4.25743e-32
-4.15242e-32
2.48667e-31
1.35367e-31
-1.339e-30
-5.98796e-31
6.88139e-30
4.31485e-30
-3.34236e-29
-3.63833e-29
1.44341e-28
2.79049e-28
-4.65075e-28
-1.7759e-27
2.62775e-28
8.56578e-27
1.02371e-26
-2.37117e-26
-8.29927e-26
-3.77509e-26
2.87452e-25
7.16759e-25
2.87613e-25
-2.26697e-24
-6.29362e-24
-6.32148e-24
7.62929e-24
4.21901e-23
8.58814e-23
9.70262e-23
9.22321e-24
-2.3751e-22
-6.50589e-22
-1.15258e-21
-1.59221e-21
-1.80452e-21
-1.6919e-21
-1.27852e-21
-7.03312e-22
-1.53931e-22
2.19322e-22
3.61258e-22
3.14528e-22
1.76029e-22
3.98097e-23
-4.11787e-23
-6.11394e-23
-4.33754e-23
-1.62162e-23
2.59456e-24
8.92129e-24
7.00863e-24
2.76438e-24
-2.70094e-25
-1.07378e-24
-3.27278e-51
2.09372e-51
-1.93618e-50
8.63271e-50
-3.93963e-49
1.7063e-48
-7.04131e-48
2.7508e-47
-1.00974e-46
3.4449e-46
-1.07389e-45
2.96769e-45
-6.80869e-45
1.04641e-44
4.85595e-45
-1.18163e-43
5.64461e-43
-1.81993e-42
4.18976e-42
-5.25989e-42
-7.74583e-42
6.93485e-41
-2.21058e-40
3.65494e-40
1.62572e-40
-3.01977e-39
9.08264e-39
-9.47669e-39
-2.96322e-38
1.47573e-37
-2.24168e-37
-3.31337e-37
2.22404e-36
-3.23814e-36
-6.31124e-36
3.27599e-35
-2.64545e-35
-1.45698e-34
4.00655e-34
2.25475e-34
-2.62398e-33
2.06955e-33
1.2448e-32
-2.41338e-32
-4.78395e-32
1.67843e-31
1.57969e-31
-9.7787e-31
-5.07671e-31
5.26267e-30
2.2458e-30
-2.7063e-29
-1.6516e-29
1.31617e-28
1.41449e-28
-5.69258e-28
-1.09324e-27
1.83702e-27
6.98223e-27
-1.04549e-27
-3.37092e-26
-4.03934e-26
9.29954e-26
3.27078e-25
1.52436e-25
-1.12536e-24
-2.8318e-24
-1.19639e-24
8.81404e-24
2.48275e-23
2.5617e-23
-2.81229e-23
-1.63785e-22
-3.39787e-22
-3.98169e-22
-8.43971e-23
8.3384e-22
2.38927e-21
4.28997e-21
5.9602e-21
6.76998e-21
6.34565e-21
4.77875e-21
2.59934e-21
5.23034e-22
-8.78538e-22
-1.39821e-21
-1.20254e-21
-6.63756e-22
-1.40869e-22
1.66125e-22
2.38106e-22
1.66537e-22
6.07784e-23
-1.14695e-23
-3.51265e-23
-2.71402e-23
-1.04883e-23
1.24372e-24
4.22056e-24
1.1322e-50
-7.48482e-51
6.8157e-50
-3.0575e-49
1.40093e-48
-6.09534e-48
2.52752e-47
-9.92663e-47
3.66579e-46
-1.25968e-45
3.96342e-45
-1.11013e-44
2.60893e-44
-4.29425e-44
-2.13123e-45
3.87957e-43
-1.96382e-42
6.50204e-42
-1.53343e-41
2.0333e-41
2.38916e-41
-2.43313e-40
7.98181e-40
-1.36549e-39
-4.2868e-40
1.06695e-38
-3.30474e-38
3.64358e-38
1.02167e-37
-5.33195e-37
8.39553e-37
1.12454e-36
-8.04385e-36
1.21457e-35
2.19443e-35
-1.19325e-34
1.02214e-34
5.21177e-34
-1.47741e-33
-7.45133e-34
9.56298e-33
-7.95024e-33
-4.49859e-32
8.97802e-32
1.71194e-31
-6.19399e-31
-5.5689e-31
3.59796e-30
1.75394e-30
-1.93519e-29
-7.75161e-30
9.96047e-29
5.86042e-29
-4.85282e-28
-5.12453e-28
2.10361e-27
4.00159e-27
-6.80771e-27
-2.5684e-26
3.96656e-27
1.24229e-25
1.49028e-25
-3.41835e-25
-1.20698e-24
-5.75451e-25
4.12612e-24
1.04798e-23
4.66036e-24
-3.20661e-23
-9.1759e-23
-9.74202e-23
9.59353e-23
5.94601e-22
1.2602e-21
1.53574e-21
5.11434e-22
-2.65317e-21
-8.09327e-21
-1.47864e-20
-2.06921e-20
-2.3569e-20
-2.20838e-20
-1.65589e-20
-8.87807e-21
-1.5832e-21
3.30186e-21
5.05529e-21
4.28536e-21
2.32593e-21
4.53715e-22
-6.29023e-22
-8.67109e-22
-5.96529e-22
-2.11451e-22
4.74469e-23
1.29516e-22
9.82005e-23
3.70489e-23
-5.32325e-24
-1.55319e-23
-3.4902e-50
2.42244e-50
-2.15673e-49
9.76055e-49
-4.49724e-48
1.96896e-47
-8.21716e-47
3.2494e-46
-1.20904e-45
4.19078e-45
-1.33273e-44
3.78819e-44
-9.12414e-44
1.59871e-43
-4.77967e-44
-1.14334e-42
6.22786e-42
-2.12788e-41
5.15973e-41
-7.25425e-41
-6.34729e-41
7.79552e-40
-2.64881e-39
4.71439e-39
7.90166e-40
-3.44895e-38
1.10791e-37
-1.30089e-37
-3.19665e-37
1.77328e-36
-2.9152e-36
-3.43846e-36
2.67953e-35
-4.22865e-35
-6.93902e-35
4.01153e-34
-3.68418e-34
-1.71203e-33
5.04515e-33
2.17969e-33
-3.21851e-32
2.85208e-32
1.4977e-31
-3.10169e-31
-5.62438e-31
2.11899e-30
1.79123e-30
-1.2264e-29
-5.47198e-30
6.59196e-29
2.41147e-29
-3.39726e-28
-1.89813e-28
1.65937e-27
1.70918e-27
-7.21719e-27
-1.35388e-26
2.34682e-26
8.75189e-26
-1.43281e-26
-4.24706e-25
-5.08802e-25
1.16726e-24
4.13076e-24
2.00972e-24
-1.40377e-23
-3.59878e-23
-1.68442e-23
1.0812e-22
3.14795e-22
3.44665e-22
-2.98457e-22
-1.99886e-21
-4.3419e-21
-5.52266e-21
-2.54275e-21
7.4082e-21
2.48496e-20
4.64965e-20
6.56966e-20
7.51056e-20
7.03393e-20
5.24409e-20
2.7574e-20
4.04943e-21
-1.15418e-20
-1.68969e-20
-1.40724e-20
-7.47757e-21
-1.29362e-21
2.21623e-21
2.92333e-21
1.97171e-21
6.73775e-22
-1.82406e-22
-4.42969e-22
-3.28595e-22
-1.20412e-22
2.10655e-23
5.30069e-23
9.08251e-50
-6.85818e-50
5.87921e-49
-2.70016e-48
1.25531e-47
-5.54996e-47
2.33894e-46
-9.34272e-46
3.51343e-45
-1.23216e-44
3.97233e-44
-1.14916e-43
2.84388e-43
-5.29549e-43
3.2289e-43
2.91221e-42
-1.75403e-41
6.23575e-41
-1.56438e-40
2.34986e-40
1.31109e-40
-2.22494e-39
7.91819e-39
-1.47968e-38
7.0901e-41
9.96514e-38
-3.36033e-37
4.25639e-37
8.8053e-37
-5.32714e-36
9.25173e-36
9.11976e-36
-8.0712e-35
1.3481e-34
1.93935e-34
-1.22379e-33
1.22526e-33
5.05992e-33
-1.57197e-32
-5.30679e-33
9.83922e-32
-9.4552e-32
-4.51074e-31
9.82103e-31
1.66171e-30
-6.62573e-30
-5.12212e-30
3.81676e-29
1.48646e-29
-2.05002e-28
-6.50458e-29
1.05854e-27
5.46884e-28
-5.18975e-27
-5.15029e-27
2.26877e-26
4.16689e-26
-7.43588e-26
-2.72259e-25
4.91776e-26
1.32866e-24
1.58298e-24
-3.65629e-24
-1.29309e-23
-6.39266e-24
4.37299e-23
1.13131e-22
5.57416e-23
-3.3325e-22
-9.89206e-22
-1.12047e-21
8.27231e-22
6.13355e-21
1.37192e-20
1.83096e-20
1.09465e-20
-1.69227e-20
-6.71343e-20
-1.30204e-19
-1.86538e-19
-2.14364e-19
-2.00625e-19
-1.48361e-19
-7.58101e-20
-7.54236e-21
3.70601e-20
5.14113e-20
4.18565e-20
2.16182e-20
3.08547e-21
-7.17731e-21
-8.99116e-21
-5.91608e-21
-1.92548e-21
6.45222e-22
1.38623e-21
1.00155e-21
3.53672e-22
-7.63992e-23
-1.65462e-22
-1.70768e-49
1.57181e-49
-1.24078e-48
5.88783e-48
-2.78926e-47
1.25788e-46
-5.40263e-46
2.19876e-45
-8.42542e-45
3.01289e-44
-9.92153e-44
2.94326e-43
-7.54136e-43
1.50138e-42
-1.37503e-42
-5.88517e-42
4.1676e-41
-1.56803e-40
4.12168e-40
-6.72279e-40
-1.30411e-40
5.39186e-39
-2.05656e-38
4.10723e-38
-9.31083e-39
-2.46247e-37
8.93289e-37
-1.24995e-36
-2.00325e-36
1.39853e-35
-2.62258e-35
-1.92037e-35
2.12918e-34
-3.85157e-34
-4.5178e-34
3.29199e-33
-3.69885e-33
-1.29674e-32
4.36276e-32
8.88319e-33
-2.65738e-31
2.85227e-31
1.19091e-30
-2.79188e-30
-4.25235e-30
1.85123e-29
1.237e-29
-1.05945e-28
-3.23283e-29
5.68547e-28
1.38732e-28
-2.94479e-27
-1.33188e-27
1.45231e-26
1.3566e-26
-6.40149e-26
-1.13608e-25
2.12624e-25
7.55274e-25
-1.59866e-25
-3.72256e-24
-4.37622e-24
1.03036e-23
3.62202e-23
1.80474e-23
-1.22171e-22
-3.18658e-22
-1.6537e-22
9.18736e-22
2.78842e-21
3.28382e-21
-1.9569e-21
-1.67909e-20
-3.89654e-20
-5.5028e-20
-4.13945e-20
2.50277e-20
1.50125e-19
3.10157e-19
4.54597e-19
5.26772e-19
4.92475e-19
3.59425e-19
1.74965e-19
2.79048e-21
-1.07233e-19
-1.38863e-19
-1.0954e-19
-5.4254e-20
-5.23478e-21
2.0967e-20
2.46397e-20
1.56824e-20
4.75248e-21
-2.06847e-21
-3.88414e-21
-2.71305e-21
-9.10564e-22
2.50353e-22
4.62183e-22
4.79396e-50
-2.20009e-49
1.18985e-48
-6.68763e-48
3.44165e-47
-1.67891e-46
7.71695e-46
-3.33719e-45
1.35173e-44
-5.09267e-44
1.76498e-43
-5.5234e-43
1.50766e-42
-3.31093e-42
4.29453e-42
6.83522e-42
-7.27304e-41
3.04789e-40
-8.69441e-40
1.60666e-39
-4.79965e-40
-9.79311e-39
4.27844e-38
-9.54176e-38
5.38188e-38
4.66375e-37
-1.94588e-36
3.1735e-36
3.08736e-36
-2.98755e-35
6.36224e-35
2.24559e-35
-4.59581e-34
9.48356e-34
7.38412e-34
-7.36711e-33
9.86419e-33
2.64995e-32
-1.03053e-31
1.5653e-33
5.99833e-31
-7.63403e-31
-2.5793e-30
6.86767e-30
8.64921e-30
-4.43292e-29
-2.19488e-29
2.51072e-28
4.06667e-29
-1.34586e-27
-1.58439e-28
7.00981e-27
2.3878e-27
-3.49348e-26
-2.90888e-26
1.56269e-25
2.60462e-25
-5.31757e-25
-1.78806e-24
4.89344e-25
8.98273e-24
1.02408e-23
-2.52528e-23
-8.72094e-23
-4.29962e-23
2.94954e-22
7.73673e-22
4.2339e-22
-2.17817e-21
-6.79188e-21
-8.39291e-21
3.56903e-21
3.93137e-20
9.60168e-20
1.45746e-19
1.36809e-19
1.65261e-20
-2.31791e-19
-5.60568e-19
-8.62941e-19
-1.01712e-18
-9.48796e-19
-6.73835e-19
-2.93503e-19
5.62542e-20
2.70409e-19
3.17331e-19
2.37893e-19
1.09387e-19
1.05159e-21
-5.34778e-20
-5.75677e-20
-3.48173e-20
-9.30675e-21
5.86066e-21
9.3683e-21
6.23406e-21
1.9302e-21
-7.23425e-22
-1.11011e-21
1.4577e-48
-2.82497e-49
5.52967e-48
-1.99975e-47
7.84573e-47
-2.7857e-46
8.97999e-46
-2.50421e-45
5.3719e-45
-4.448e-45
-3.43505e-44
2.56618e-43
-1.12914e-42
3.71016e-42
-8.8659e-42
1.02007e-41
3.47723e-41
-2.80032e-40
1.08272e-39
-2.74122e-39
3.53128e-39
6.35296e-39
-5.28411e-38
1.59083e-37
-2.08892e-37
-3.92393e-37
2.80523e-36
-6.40068e-36
6.89657e-37
4.09952e-35
-1.19137e-34
4.69006e-35
6.53273e-34
-1.83906e-33
-5.7048e-35
1.16036e-32
-2.20305e-32
-3.14804e-32
1.85003e-31
-9.10214e-32
-9.69368e-31
1.72735e-30
3.72118e-30
-1.34611e-29
-1.0037e-29
8.23857e-29
1.04092e-29
-4.5669e-28
7.12682e-29
2.44366e-27
-4.07208e-28
-1.28938e-26
-1.16952e-27
6.57949e-26
4.01154e-26
-3.04039e-25
-4.36595e-25
1.08987e-24
3.24524e-24
-1.39449e-24
-1.70673e-23
-1.78962e-23
5.00563e-23
1.64388e-22
7.56389e-23
-5.66425e-22
-1.4816e-21
-8.57493e-22
4.05803e-21
1.31404e-20
1.74253e-20
-3.21881e-21
-7.12163e-20
-1.89918e-19
-3.21528e-19
-3.85602e-19
-2.92624e-19
-2.6983e-21
4.26675e-19
8.43806e-19
1.06849e-18
9.87725e-19
6.22332e-19
1.20332e-19
-3.20649e-19
-5.53199e-19
-5.42815e-19
-3.62755e-19
-1.35398e-19
3.67716e-20
1.11135e-19
1.02984e-19
5.60559e-20
1.05287e-20
-1.39793e-20
-1.77635e-20
-1.08112e-20
-2.79713e-21
1.75755e-21
2.09019e-21
-8.45386e-48
3.49899e-48
-4.09887e-47
1.69403e-46
-7.37592e-46
3.02724e-45
-1.1824e-44
4.3622e-44
-1.50852e-43
4.83568e-43
-1.41244e-42
3.64883e-42
-7.83081e-42
1.15111e-41
1.81533e-42
-8.91791e-41
3.79354e-40
-9.99403e-40
1.52064e-39
7.30375e-40
-1.30659e-38
4.36646e-38
-6.96171e-38
-4.77706e-38
6.13509e-37
-1.63978e-36
1.03927e-36
7.46233e-36
-2.73251e-35
2.52345e-35
1.07536e-34
-4.12434e-34
2.63731e-34
1.96435e-33
-5.49117e-33
-1.67474e-33
3.56698e-32
-4.65825e-32
-1.41978e-31
4.58914e-31
2.75294e-31
-2.92056e-30
1.13636e-30
1.55446e-29
-1.66207e-29
-7.7156e-29
1.21784e-28
3.86237e-28
-7.06909e-28
-2.05272e-27
3.46425e-27
1.16001e-26
-1.33682e-26
-6.61877e-26
2.44693e-26
3.4974e-25
1.97949e-25
-1.50084e-24
-2.71315e-24
3.61716e-24
1.79341e-23
1.1197e-23
-6.31699e-23
-1.65351e-22
-4.09779e-23
6.38673e-22
1.58246e-21
9.82037e-22
-4.16541e-21
-1.47586e-20
-2.33252e-20
-8.39033e-21
6.43489e-20
2.29976e-19
5.04717e-19
8.69825e-19
1.27113e-18
1.63752e-18
1.90838e-18
2.05291e-18
2.07023e-18
1.97395e-18
1.77671e-18
1.48785e-18
1.12494e-18
7.26148e-19
3.4928e-19
5.40102e-20
-1.22313e-19
-1.79499e-19
-1.50891e-19
-8.46968e-20
-2.23368e-20
1.461e-20
2.47609e-20
1.84474e-20
7.65751e-21
-1.29238e-22
-3.17406e-21
-2.12044e-21
3.10098e-47
-1.52717e-47
1.62087e-46
-6.91882e-46
3.07983e-45
-1.29818e-44
5.2215e-44
-1.99138e-43
7.15495e-43
-2.3999e-42
7.41412e-42
-2.06375e-41
4.96491e-41
-9.31711e-41
8.40975e-41
2.88914e-40
-1.95056e-39
6.67938e-39
-1.52502e-38
1.77074e-38
3.21285e-38
-2.4349e-37
6.99571e-37
-9.31134e-37
-1.2915e-36
1.02463e-35
-2.45301e-35
1.08401e-35
1.20201e-34
-4.00967e-34
3.32825e-34
1.57152e-33
-5.72126e-33
3.6048e-33
2.57431e-32
-7.18655e-32
-1.41986e-32
4.31394e-31
-6.05732e-31
-1.51173e-30
5.33686e-30
1.82933e-30
-3.06962e-29
1.91228e-29
1.46348e-28
-2.00023e-28
-6.43709e-28
1.29903e-27
2.85067e-27
-6.99951e-27
-1.3647e-26
3.32144e-26
7.18222e-26
-1.35744e-25
-3.94255e-25
4.13712e-25
2.06855e-24
-2.63223e-25
-9.37797e-24
-8.13785e-24
3.12233e-23
7.16066e-23
-3.63328e-23
-3.41172e-22
-3.59395e-22
7.75771e-22
2.66346e-21
1.63439e-21