/*--------------------------------*- C++ -*----------------------------------*\
  =========                 |
  \\      /  F ield         | OpenFOAM: The Open Source CFD Toolbox
   \\    /   O peration     | Website:  https://openfoam.org
    \\  /    A nd           | Version:  13
     \\/     M anipulation  |
\*---------------------------------------------------------------------------*/
FoamFile
{
    format      ascii;
    class       volScalarField;
    location    "5";
    object      T;
}
// * * * * * * * * * * * * * * * * * * * * * * * * * * * * * * * * * * * * * //

dimensions      [0 0 0 1 0 0 0];

internalField   nonuniform List<scalar> 
10000
(
1.28272e-63
-6.38951e-64
6.65819e-63
-2.80435e-62
1.22206e-61
-4.99152e-61
1.9162e-60
-6.81163e-60
2.19081e-59
-6.07974e-59
1.27549e-58
-7.7904e-59
-1.06133e-57
7.67331e-57
-3.54253e-56
1.29589e-55
-3.8906e-55
9.27064e-55
-1.48487e-54
8.25623e-58
1.05307e-53
-4.39192e-53
1.03681e-52
-1.01683e-52
-3.17552e-52
1.79854e-51
-4.0396e-51
1.52092e-51
2.11029e-50
-7.22366e-50
7.18363e-50
2.55456e-49
-1.09173e-48
1.07132e-48
4.15637e-48
-1.52583e-47
5.80033e-48
7.87727e-47
-1.69297e-46
-1.85513e-46
1.23576e-45
-5.76131e-46
-6.24783e-45
9.74416e-45
2.54844e-44
-7.30262e-44
-9.03679e-44
4.37324e-43
3.1141e-43
-2.37377e-42
-1.33351e-42
1.22012e-41
8.51609e-42
-5.9209e-41
-6.62059e-41
2.57185e-40
4.92346e-40
-8.54594e-40
-3.12827e-39
7.7886e-40
1.54654e-38
1.63453e-38
-4.70016e-38
-1.45097e-37
-3.33264e-38
5.6906e-37
1.21857e-36
6.86775e-38
-4.84827e-36
-1.11016e-35
-6.98135e-36
2.53621e-35
9.04884e-35
1.47442e-34
8.73824e-35
-2.46603e-34
-9.82608e-34
-2.11372e-33
-3.42946e-33
-4.55011e-33
-5.07347e-33
-4.76665e-33
-3.69297e-33
-2.19393e-33
-7.32762e-34
3.10758e-34
7.81634e-34
7.6309e-34
4.79152e-34
1.60433e-34
-5.11168e-35
-1.24169e-34
-1.0173e-34
-4.65621e-35
-2.58187e-36
1.59365e-35
1.51685e-35
7.25426e-36
5.77244e-37
-1.9621e-36
-5.49071e-63
2.78873e-63
-2.87877e-62
1.2187e-61
-5.33569e-61
2.19327e-60
-8.49216e-60
3.05621e-59
-1.00226e-58
2.88237e-58
-6.6057e-58
7.73944e-58
2.96354e-57
-2.7612e-56
1.35849e-55
-5.12413e-55
1.56972e-54
-3.80876e-54
6.27856e-54
-7.31577e-55
-4.14728e-53
1.78004e-52
-4.27746e-52
4.38552e-52
1.24417e-51
-7.31239e-51
1.67049e-50
-7.01465e-51
-8.51135e-50
2.96737e-49
-3.03839e-49
-1.02779e-48
4.48186e-48
-4.51064e-48
-1.68324e-47
6.27888e-47
-2.52717e-47
-3.21752e-46
6.99898e-46
7.46836e-46
-5.07887e-45
2.44171e-45
2.56037e-44
-4.03155e-44
-1.04216e-43
3.00943e-43
3.68929e-43
-1.79962e-42
-1.27083e-42
9.76255e-42
5.45909e-42
-5.01645e-41
-3.5027e-41
2.43314e-40
2.72857e-40
-1.05553e-39
-2.02879e-39
3.49422e-39
1.2872e-38
-3.05964e-39
-6.3449e-38
-6.78552e-38
1.9136e-37
5.96852e-37
1.47919e-37
-2.31881e-36
-5.02137e-36
-4.14451e-37
1.96676e-35
4.56042e-35
2.9859e-35
-1.00842e-34
-3.67192e-34
-6.06538e-34
-3.81197e-34
9.42921e-34
3.88627e-33
8.42593e-33
1.37169e-32
1.82292e-32
2.03399e-32
1.91083e-32
1.47888e-32
8.75904e-33
2.88708e-33
-1.29732e-33
-3.1728e-33
-3.0793e-33
-1.92321e-33
-6.34731e-34
2.15929e-34
5.05804e-34
4.11142e-34
1.86409e-34
8.63586e-36
-6.54374e-35
-6.15585e-35
-2.91508e-35
-2.07837e-36
8.04442e-36
4.79069e-62
-2.45135e-62
2.52143e-61
-1.06948e-60
4.69056e-60
-1.93263e-59
7.50639e-59
-2.71344e-58
8.95952e-58
-2.60789e-57
6.14335e-57
-8.20919e-57
-2.06477e-56
2.23704e-55
-1.13352e-54
4.33272e-54
-1.33852e-53
3.2719e-53
-5.45536e-53
8.81232e-54
3.50051e-52
-1.52071e-51
3.68087e-51
-3.84005e-51
-1.04773e-50
6.25516e-50
-1.43891e-49
6.29491e-50
7.25646e-49
-2.54915e-48
2.64098e-48
8.75335e-48
-3.84927e-47
3.91387e-47
1.43749e-46
-5.39802e-46
2.22249e-46
2.75761e-45
-6.02875e-45
-6.36154e-45
4.3642e-44
-2.12476e-44
-2.19743e-43
3.47404e-43
8.93628e-43
-2.589e-42
-3.16105e-42
1.54727e-41
1.08858e-41
-8.39168e-41
-4.68207e-41
4.31155e-40
3.01019e-40
-2.09086e-39
-2.3471e-39
9.06597e-39
1.74518e-38
-2.99676e-38
-1.10668e-37
2.58139e-38
5.44874e-37
5.85448e-37
-1.63825e-36
-5.13095e-36
-1.30912e-36
1.98579e-35
4.31984e-35
4.02297e-36
-1.68117e-34
-3.91839e-34
-2.60697e-34
8.5471e-34
3.13909e-33
5.21459e-33
3.35383e-33
-7.85436e-33
-3.28614e-32
-7.14899e-32
-1.16549e-31
-1.54997e-31
-1.72994e-31
-1.62513e-31
-1.25721e-31
-7.43647e-32
-2.43721e-32
1.12199e-32
2.71268e-32
2.62624e-32
1.63654e-32
5.36801e-33
-1.87622e-33
-4.33086e-33
-3.50878e-33
-1.58452e-33
-6.72681e-35
5.62141e-34
5.26268e-34
2.48184e-34
1.6828e-35
-6.90628e-35
-3.92427e-61
2.0262e-61
-2.0751e-60
8.82219e-60
-3.87739e-59
1.60207e-58
-6.24565e-58
2.26951e-57
-7.55346e-57
2.22902e-56
-5.41107e-56
8.17615e-56
1.17244e-55
-1.66111e-54
8.77025e-54
-3.41185e-53
1.06561e-52
-2.62939e-52
4.44672e-52
-9.64481e-53
-2.75005e-51
1.21355e-50
-2.96451e-50
3.15979e-50
8.20611e-50
-4.99998e-49
1.16031e-48
-5.33224e-49
-5.77554e-48
2.04866e-47
-2.15382e-47
-6.95743e-47
3.0926e-46
-3.18512e-46
-1.14659e-45
4.3424e-45
-1.83866e-45
-2.20966e-44
4.86168e-44
5.05724e-44
-3.50858e-43
1.73541e-43
1.76389e-42
-2.80296e-42
-7.16493e-42
2.08455e-41
2.53197e-41
-1.24485e-40
-8.7163e-41
6.74947e-40
3.75484e-40
-3.46731e-39
-2.42026e-39
1.68108e-38
1.88942e-38
-7.28469e-38
-1.40493e-37
2.40349e-37
8.90333e-37
-2.02723e-37
-4.37721e-36
-4.73083e-36
1.31095e-35
4.12743e-35
1.09106e-35
-1.58969e-34
-3.47813e-34
-3.70286e-35
1.34264e-33
3.14994e-33
2.13781e-33
-6.75159e-33
-2.50733e-32
-4.19514e-32
-2.776e-32
6.06235e-32
2.58777e-31
5.65469e-31
9.236e-31
1.2294e-30
1.37267e-30
1.28944e-30
9.96949e-31
5.88708e-31
1.91508e-31
-9.09391e-32
-2.167e-31
-2.09131e-31
-1.29941e-31
-4.2281e-32
1.52954e-32
3.46616e-32
2.79643e-32
1.25635e-32
4.70273e-34
-4.51788e-33
-4.20363e-33
-1.97188e-33
-1.24812e-34
5.54615e-34
3.12884e-60
-1.62992e-60
1.66216e-59
-7.08266e-59
3.1192e-58
-1.2923e-57
5.05597e-57
-1.84633e-56
6.19085e-56
-1.85005e-55
4.61124e-55
-7.65549e-55
-5.29083e-55
1.19065e-53
-6.59131e-53
2.61356e-52
-8.25709e-52
2.05731e-51
-3.52941e-51
9.59913e-52
2.10123e-50
-9.42688e-50
2.32476e-49
-2.53166e-49
-6.24916e-49
3.8907e-48
-9.1109e-48
4.39247e-48
4.4741e-47
-1.6031e-46
1.71068e-46
5.38185e-46
-2.41927e-45
2.52451e-45
8.90215e-45
-3.40143e-44
1.4814e-44
1.72382e-43
-3.8179e-43
-3.91245e-43
2.74659e-42
-1.38073e-42
-1.37859e-41
2.20245e-41
5.59302e-41
-1.63443e-40
-1.97438e-40
9.75278e-40
6.79381e-40
-5.28628e-39
-2.93134e-39
2.71528e-38
1.89457e-38
-1.31618e-37
-1.481e-37
5.7e-37
1.10134e-36
-1.87711e-36
-6.97503e-36
1.54907e-36
3.42419e-35
3.72283e-35
-1.02143e-34
-3.23319e-34
-8.85038e-35
1.23911e-33
2.72714e-33
3.27505e-34
-1.04395e-32
-2.46586e-32
-1.70743e-32
5.18922e-32
1.9498e-31
3.28667e-31
2.23764e-31
-4.54258e-31
-1.98224e-30
-4.35212e-30
-7.1226e-30
-9.49005e-30
-1.06002e-29
-9.95696e-30
-7.69371e-30
-4.53508e-30
-1.46351e-30
7.17892e-31
1.68533e-30
1.62107e-30
1.00414e-30
3.23953e-31
-1.21451e-31
-2.70099e-31
-2.16956e-31
-9.69448e-32
-3.11322e-33
3.53579e-32
3.26893e-32
1.5249e-32
8.92721e-34
-4.33702e-33
-2.42406e-59
1.27401e-59
-1.29371e-58
5.52507e-58
-2.4381e-57
1.0128e-56
-3.97609e-56
1.45889e-55
-4.92629e-55
1.48943e-54
-3.80101e-54
6.8042e-54
9.87362e-55
-8.20037e-53
4.80001e-52
-1.9435e-51
6.21561e-51
-1.5644e-50
2.72319e-50
-8.91176e-51
-1.55813e-49
7.11475e-49
-1.77195e-48
1.97191e-48
4.61688e-48
-2.94174e-47
6.95382e-47
-3.51432e-47
-3.36687e-46
1.21921e-45
-1.32107e-45
-4.04367e-45
1.83939e-44
-1.94551e-44
-6.7149e-44
2.58973e-43
-1.16063e-43
-1.30688e-42
2.91459e-42
2.93979e-42
-2.08983e-41
1.06838e-41
1.04717e-40
-1.68244e-40
-4.24291e-40
1.24573e-39
1.49604e-39
-7.42727e-39
-5.1451e-39
4.02453e-38
2.22359e-38
-2.06691e-37
-1.44129e-37
1.00169e-36
1.12832e-36
-4.33538e-36
-8.39208e-36
1.425e-35
5.31162e-35
-1.14941e-35
-2.60373e-34
-2.84798e-34
7.73484e-34
2.46195e-33
6.97715e-34
-9.38697e-33
-2.07865e-32
-2.78843e-33
7.88803e-32
1.87641e-31
1.32604e-31
-3.87286e-31
-1.47345e-30
-2.5031e-30
-1.75385e-30
3.29577e-30
1.47391e-29
3.25274e-29
5.33477e-29
7.11531e-29
7.95105e-29
7.46818e-29
5.7669e-29
3.39279e-29
1.08543e-29
-5.51028e-30
-1.27371e-29
-1.22084e-29
-7.53763e-30
-2.40946e-30
9.37741e-31
2.04549e-30
1.63545e-30
7.26581e-31
1.91972e-32
-2.68981e-31
-2.47027e-31
-1.14556e-31
-6.12667e-33
3.29656e-32
1.82295e-58
-9.66598e-59
9.77409e-58
-4.18354e-57
1.84973e-56
-7.70376e-56
3.0345e-55
-1.11849e-54
3.80217e-54
-1.16212e-53
3.02932e-53
-5.76882e-53
1.57652e-53
5.40517e-52
-3.38222e-51
1.40137e-50
-4.54052e-50
1.15492e-49
-2.04044e-49
7.81002e-50
1.12001e-48
-5.21163e-48
1.31137e-47
-1.49165e-47
-3.30507e-47
2.15896e-46
-5.15371e-46
2.72842e-46
2.45862e-45
-9.00296e-45
9.90943e-45
2.94789e-44
-1.35784e-43
1.45635e-43
4.91564e-43
-1.91454e-42
8.83373e-43
9.61837e-42
-2.16078e-41
-2.14307e-41
1.54398e-40
-8.03227e-41
-7.72276e-40
1.24822e-39
3.12475e-39
-9.2205e-39
-1.10037e-38
5.49267e-38
3.78191e-38
-2.97528e-37
-1.63718e-37
1.52784e-36
1.06447e-36
-7.40292e-36
-8.34672e-36
3.20211e-35
6.20951e-35
-1.05048e-34
-3.9279e-34
8.27318e-35
1.92255e-33
2.11589e-33
-5.687e-33
-1.82049e-32
-5.34035e-33
6.90441e-32
1.53863e-31
2.28715e-32
-5.78604e-31
-1.38659e-30
-1.00043e-30
2.8036e-30
1.08094e-29
1.85132e-29
1.33539e-29
-2.31152e-29
-1.06261e-28
-2.35818e-28
-3.87654e-28
-5.17613e-28
-5.78675e-28
-5.43501e-28
-4.19397e-28
-2.4623e-28
-7.80338e-29
4.10836e-29
9.34468e-29
8.92356e-29
5.49034e-29
1.73764e-29
-7.03369e-30
-1.50395e-29
-1.19661e-29
-5.28354e-30
-1.07321e-31
1.98705e-30
1.81215e-30
8.35123e-31
4.01526e-32
-2.43314e-31
-1.32916e-57
7.11054e-58
-7.15972e-57
3.07132e-56
-1.3606e-55
5.68098e-55
-2.24501e-54
8.31136e-54
-2.84334e-53
8.77928e-53
-2.3329e-52
4.6789e-52
-2.82749e-52
-3.39119e-51
2.30228e-50
-9.7859e-50
3.2151e-49
-8.26847e-49
1.48309e-48
-6.50388e-49
-7.79409e-48
3.701e-47
-9.41289e-47
1.09465e-46
2.28942e-46
-1.53625e-45
3.7049e-45
-2.05349e-45
-1.74019e-44
6.44763e-44
-7.21232e-44
-2.0827e-43
9.72153e-43
-1.05783e-42
-3.48837e-42
1.37285e-41
-6.52505e-42
-6.86458e-41
1.55402e-40
1.51389e-40
-1.10642e-39
5.86138e-40
5.52366e-39
-8.98459e-39
-2.23162e-38
6.6205e-38
7.84753e-38
-3.94027e-37
-2.69506e-37
2.13366e-36
1.16867e-36
-1.09552e-35
-7.62377e-36
5.30719e-35
5.98872e-35
-2.29424e-34
-4.45675e-34
7.51175e-34
2.81761e-33
-5.77012e-34
-1.37702e-32
-1.52503e-32
4.05543e-32
1.30586e-31
3.96444e-32
-4.92545e-31
-1.10486e-30
-1.80779e-31
4.11574e-30
9.9396e-30
7.3246e-30
-1.96625e-29
-7.68976e-29
-1.32833e-28
-9.8672e-29
1.56426e-28
7.41847e-28
1.65641e-27
2.72972e-27
3.64922e-27
4.08173e-27
3.83339e-27
2.95585e-27
1.73152e-27
5.43104e-28
-2.97229e-28
-6.64807e-28
-6.32341e-28
-3.87608e-28
-1.21356e-28
5.11976e-29
1.0724e-28
8.48855e-29
3.72345e-29
5.1142e-31
-1.42391e-29
-1.28909e-29
-5.90129e-30
-2.49613e-31
1.74198e-30
9.38429e-57
-5.06533e-57
5.07872e-56
-2.18344e-55
9.69113e-55
-4.05647e-54
1.60812e-53
-5.97882e-53
2.05781e-52
-6.41462e-52
1.73463e-51
-3.63601e-51
3.17398e-51
2.00943e-50
-1.51121e-49
6.60905e-49
-2.20397e-48
5.7338e-48
-1.04446e-47
5.16613e-48
5.24349e-47
-2.54482e-46
6.54522e-46
-7.7842e-46
-1.53222e-45
1.05857e-44
-2.58035e-44
1.49663e-44
1.19233e-43
-4.47305e-43
5.08749e-43
1.42418e-42
-6.74234e-42
7.44701e-42
2.39673e-41
-9.53706e-41
4.67227e-41
4.74509e-40
-1.08296e-39
-1.03495e-39
7.68112e-39
-4.14697e-39
-3.82701e-38
6.26704e-38
1.54366e-37
-4.60604e-37
-5.41986e-37
2.73873e-36
1.8596e-36
-1.4825e-35
-8.0779e-36
7.61099e-35
5.28844e-35
-3.68647e-34
-4.16261e-34
1.59269e-33
3.09912e-33
-5.20451e-33
-1.9583e-32
3.89496e-33
9.55607e-32
1.06509e-31
-2.80158e-31
-9.07609e-31
-2.85111e-31
3.40387e-30
7.68772e-30
1.37681e-30
-2.83564e-29
-6.90373e-29
-5.19817e-29
1.33424e-28
5.29854e-28
9.23533e-28
7.06743e-28
-1.01916e-27
-5.00835e-27
-1.12578e-26
-1.8603e-26
-2.49016e-26
-2.78678e-26
-2.61706e-26
-2.01633e-26
-1.17829e-26
-3.65408e-27
2.08422e-27
4.58081e-27
4.33879e-27
2.64894e-27
8.19653e-28
-3.61234e-28
-7.40724e-28
-5.83114e-28
-2.53977e-28
-1.68353e-30
9.88636e-29
8.88152e-29
4.0371e-29
1.45703e-30
-1.20833e-29
-6.40673e-56
3.48957e-56
-3.48378e-55
1.50106e-54
-6.67502e-54
2.80086e-53
-1.11379e-52
4.15802e-52
-1.43945e-51
4.52747e-51
-1.24409e-50
2.70912e-50
-2.96774e-50
-1.11098e-49
9.54545e-49
-4.31035e-48
1.46062e-47
-3.84613e-47
7.11745e-47
-3.92229e-47
-3.40484e-46
1.69196e-45
-4.40307e-45
5.35697e-45
9.89079e-45
-7.05386e-44
1.73882e-43
-1.05502e-43
-7.8973e-43
3.0021e-42
-3.47365e-42
-9.41262e-42
4.52383e-41
-5.07482e-41
-1.59211e-40
6.41021e-40
-3.23929e-40
-3.17259e-39
7.30329e-39
6.83717e-39
-5.15935e-38
2.84124e-38
2.56508e-37
-4.23093e-37
-1.03283e-36
3.10107e-36
3.62005e-36
-1.84203e-35
-1.24068e-35
9.96749e-35
5.39893e-35
-5.11663e-34
-3.54832e-34
2.47792e-33
2.79925e-33
-1.06995e-32
-2.08525e-32
3.48944e-32
1.31704e-31
-2.54142e-32
-6.41708e-31
-7.19872e-31
1.87253e-30
6.10437e-30
1.9839e-30
-2.27589e-29
-5.17666e-29
-1.00992e-29
1.88985e-28
4.64026e-28
3.57149e-28
-8.74735e-28
-3.53154e-27
-6.21396e-27
-4.90099e-27
6.37622e-27
3.26472e-26
7.39286e-26
1.22525e-25
1.64242e-25
1.83912e-25
1.72698e-25
1.32939e-25
7.74817e-26
2.37288e-26
-1.41477e-26
-3.05306e-26
-2.87877e-26
-1.75e-26
-5.34566e-27
2.46754e-27
4.94956e-27
3.87377e-27
1.67444e-27
-1.808e-30
-6.6423e-28
-5.91889e-28
-2.67009e-28
-7.85136e-30
8.11025e-29
4.22283e-55
-2.32135e-55
2.30738e-54
-9.96392e-54
4.43919e-53
-1.86722e-52
7.44777e-52
-2.79154e-51
9.71795e-51
-3.08257e-50
8.59648e-50
-1.9354e-49
2.48316e-49
5.61229e-49
-5.78792e-48
2.71014e-47
-9.34386e-47
2.49186e-46
-4.68637e-46
2.84922e-46
2.1302e-45
-1.08609e-44
2.86143e-44
-3.56269e-44
-6.14622e-44
4.53876e-43
-1.1321e-42
7.18388e-43
5.04862e-42
-1.9464e-41
2.29253e-41
6.00306e-41
-2.93219e-40
3.34295e-40
1.02098e-39
-4.16268e-39
2.17155e-39
2.04872e-38
-4.75955e-38
-4.35775e-38
3.34818e-37
-1.88259e-37
-1.6608e-36
2.76068e-36
6.67447e-36
-2.01759e-35
-2.33485e-35
1.19717e-34
7.99132e-35
-6.47561e-34
-3.48376e-34
3.32382e-33
2.29934e-33
-1.60948e-32
-1.81858e-32
6.9459e-32
1.35568e-31
-2.26082e-31
-8.55916e-31
1.60074e-31
4.16397e-30
4.70192e-30
-1.20922e-29
-3.96748e-29
-1.33381e-29
1.47016e-28
3.36869e-28
7.12984e-29
-1.21662e-27
-3.01397e-27
-2.37241e-27
5.53191e-27
2.27359e-26
4.04067e-26
3.2861e-26
-3.81839e-26
-2.05126e-25
-4.68322e-25
-7.78699e-25
-1.04543e-24
-1.17138e-24
-1.09987e-24
-8.4584e-25
-4.91562e-25
-1.48454e-25
9.28383e-26
1.96538e-25
1.84427e-25
1.11592e-25
3.36075e-26
-1.6296e-26
-3.19497e-26
-2.48506e-26
-1.06537e-26
1.00974e-28
4.3124e-27
3.80991e-27
1.70477e-27
3.78045e-29
-5.25995e-28
-2.68249e-54
1.48861e-54
-1.47302e-53
6.37525e-53
-2.8457e-52
1.19985e-51
-4.80017e-51
1.8062e-50
-6.32165e-50
2.02143e-49
-5.71485e-49
1.32508e-48
-1.91268e-48
-2.48186e-48
3.35938e-47
-1.63967e-46
5.76005e-46
-1.55679e-45
2.97665e-45
-1.98068e-45
-1.2815e-44
6.71967e-44
-1.7935e-43
2.28618e-43
3.66848e-43
-2.81529e-42
7.10991e-42
-4.71809e-42
-3.10975e-41
1.21709e-40
-1.46024e-40
-3.68792e-40
1.83302e-39
-2.12542e-39
-6.30963e-39
2.60751e-38
-1.40557e-38
-1.27567e-37
2.99279e-37
2.67475e-37
-2.09592e-36
1.20459e-36
1.03708e-35
-1.73836e-35
-4.1591e-35
1.26654e-34
1.45174e-34
-7.50666e-34
-4.96071e-34
4.05885e-33
2.16654e-33
-2.08317e-32
-1.43664e-32
1.00863e-31
1.13955e-31
-4.35066e-31
-8.5026e-31
1.41334e-30
5.36653e-30
-9.71843e-31
-2.60684e-29
-2.96324e-29
7.5328e-29
2.48797e-28
8.65098e-29
-9.16096e-28
-2.11524e-27
-4.83981e-28
7.55348e-27
1.88887e-26
1.52131e-26
-3.36864e-26
-1.4116e-25
-2.53537e-25
-2.12721e-25
2.17994e-25
1.23986e-24
2.85676e-24
4.76712e-24
6.41086e-24
7.18814e-24
6.74874e-24
5.18459e-24
3.00346e-24
8.92982e-25
-5.8804e-25
-1.22006e-24
-1.13895e-24
-6.85668e-25
-2.03282e-25
1.03894e-25
1.98916e-25
1.53693e-25
6.53042e-26
-1.21939e-27
-2.70125e-26
-2.36491e-26
-1.04896e-26
-1.50282e-28
3.29119e-27
1.63898e-53
-9.18459e-54
9.04635e-53
-3.92426e-52
1.75498e-51
-7.41747e-51
2.97626e-50
-1.12419e-49
3.95515e-49
-1.27444e-48
3.64914e-48
-8.68631e-48
1.37457e-47
8.54607e-48
-1.85994e-46
9.52531e-46
-3.41508e-45
9.36125e-45
-1.8206e-44
1.31714e-44
7.39574e-44
-3.99954e-43
1.08223e-42
-1.41304e-42
-2.09766e-42
1.68022e-41
-4.29951e-41
2.98379e-41
1.84198e-40
-7.32674e-40
8.96113e-40
2.17804e-39
-1.10318e-38
1.30204e-38
3.75059e-38
-1.57273e-37
8.76979e-38
7.64504e-37
-1.81256e-36
-1.57773e-36
1.26333e-35
-7.43123e-36
-6.23442e-35
1.05454e-34
2.49447e-34
-7.65798e-34
-8.68536e-34
4.53332e-33
2.96201e-33
-2.45017e-32
-1.29602e-32
1.25745e-31
8.63847e-32
-6.088e-31
-6.87493e-31
2.62481e-30
5.13539e-30
-8.51066e-30
-3.24064e-29
5.67843e-30
1.57184e-28
1.79875e-28
-4.51891e-28
-1.50274e-27
-5.4036e-28
5.49695e-27
1.27937e-26
3.15494e-27
-4.51479e-26
-1.14021e-25
-9.40168e-26
1.97126e-25
8.43707e-25
1.53246e-24
1.32728e-24
-1.18022e-24
-7.19352e-24
-1.67464e-23
-2.80565e-23
-3.78011e-23
-4.24165e-23
-3.98199e-23
-3.05554e-23
-1.76386e-23
-5.15237e-24
3.58919e-24
7.29052e-24
6.76779e-24
4.0519e-24
1.18042e-24
-6.38358e-25
-1.19236e-24
-9.14735e-25
-3.84904e-25
1.10838e-26
1.62968e-25
1.41307e-25
6.2086e-26
3.57877e-28
-1.98332e-26
-9.6097e-53
5.44042e-53
-5.33262e-52
2.31872e-51
-1.03895e-50
4.40181e-50
-1.77144e-49
6.71629e-49
-2.37493e-48
7.70891e-48
-2.23379e-47
5.44446e-47
-9.27902e-47
-1.11689e-47
9.78095e-46
-5.30016e-45
1.94311e-44
-5.4066e-44
1.07005e-43
-8.37086e-44
-4.08362e-43
2.28514e-42
-6.274e-42
8.39554e-42
1.14556e-41
-9.62816e-41
2.49842e-40
-1.81366e-40
-1.04684e-39
4.23746e-39
-5.28801e-39
-1.23376e-38
6.37887e-38
-7.67066e-38
-2.13967e-37
9.11564e-37
-5.26487e-37
-4.40052e-36
1.05526e-35
8.92211e-36
-7.31763e-35
4.41198e-35
3.60069e-34
-6.1511e-34
-1.43697e-33
4.45117e-33
4.98904e-33
-2.63155e-32
-1.69735e-32
1.42169e-31
7.44052e-32
-7.296e-31
-4.9882e-31
3.53238e-30
3.98513e-30
-1.52237e-29
-2.98096e-29
4.92705e-29
1.88101e-28
-3.1878e-29
-9.11054e-28
-1.04961e-27
2.60554e-27
8.72537e-27
3.24414e-27
-3.17e-26
-7.43937e-26
-1.972e-26
2.59278e-25
6.61683e-25
5.58905e-25
-1.10599e-24
-4.84491e-24
-8.90566e-24
-7.96785e-24
6.01567e-24
3.99584e-23
9.41199e-23
1.58391e-22
2.13848e-22
2.40161e-22
2.25435e-22
1.72762e-22
9.93387e-23
2.84378e-23
-2.10706e-23
-4.18509e-23
-3.86145e-23
-2.2979e-23
-6.56387e-24
3.773e-24
6.86784e-24
5.22837e-24
2.17663e-24
-8.70977e-26
-9.45133e-25
-8.11128e-25
-3.52736e-25
1.27961e-27
1.14883e-25
5.39247e-52
-3.08605e-52
3.00942e-51
-1.31175e-50
5.88914e-50
-2.50123e-49
1.00956e-48
-3.84201e-48
1.36532e-47
-4.46319e-47
1.30789e-46
-3.25692e-46
5.90241e-46
-1.5764e-46
-4.85861e-45
2.81674e-44
-1.05833e-43
2.99193e-43
-6.02947e-43
5.07711e-43
2.15044e-42
-1.2502e-41
3.48616e-41
-4.78427e-41
-5.95265e-41
5.2843e-40
-1.39186e-39
1.05733e-39
5.69373e-39
-2.34905e-38
2.99404e-38
6.68519e-38
-3.53546e-37
4.3364e-37
1.16854e-36
-5.06553e-36
3.03498e-36
2.42702e-35
-5.89272e-35
-4.82362e-35
4.06384e-34
-2.51579e-34
-1.99328e-33
3.44246e-33
7.9318e-33
-2.48163e-32
-2.74474e-32
1.46509e-31
9.31055e-32
-7.91161e-31
-4.08896e-31
4.06016e-30
2.75931e-30
-1.96586e-29
-2.21434e-29
8.46973e-29
1.65927e-28
-2.73643e-28
-1.04714e-27
1.71639e-28
5.06484e-27
5.8745e-27
-1.44077e-26
-4.85947e-26
-1.86789e-26
1.75305e-25
4.14977e-25
1.17971e-25
-1.42743e-24
-3.68337e-24
-3.18928e-24
5.93379e-24
2.66692e-23
4.96511e-23
4.59248e-23
-2.85595e-23
-2.11869e-22
-5.05822e-22
-8.55533e-22
-1.15777e-21
-1.30145e-21
-1.2215e-21
-9.34756e-22
-5.35113e-22
-1.49657e-22
1.18719e-22
2.30262e-22
2.11049e-22
1.24755e-22
3.48482e-23
-2.14061e-23
-3.79248e-23
-2.86319e-23
-1.17801e-23
6.18931e-25
5.25745e-24
4.46269e-24
1.91901e-24
-2.68547e-26
-6.38235e-25
-2.88687e-51
1.6714e-51
-1.62094e-50
7.08361e-50
-3.18666e-49
1.35684e-48
-5.49302e-48
2.09826e-47
-7.49306e-47
2.46632e-46
-7.30474e-46
1.85516e-45
-3.54132e-45
2.04061e-45
2.26306e-44
-1.42491e-43
5.50157e-43
-1.58196e-42
3.24833e-42
-2.93316e-42
-1.0759e-41
6.53058e-41
-1.85157e-40
2.60811e-40
2.92948e-40
-2.76987e-39
7.4139e-39
-5.89758e-39
-2.95474e-38
1.24477e-37
-1.62241e-37
-3.45427e-37
1.87318e-36
-2.34654e-36
-6.09117e-36
2.69165e-35
-1.67601e-35
-1.27905e-34
3.14806e-34
2.48484e-34
-2.15811e-33
1.37462e-33
1.0548e-32
-1.84386e-32
-4.18354e-32
1.32374e-31
1.44207e-31
-7.80308e-31
-4.87384e-31
4.21174e-30
2.1444e-30
-2.16151e-29
-1.45801e-29
1.04672e-28
1.17625e-28
-4.5088e-28
-8.83325e-28
1.45442e-27
5.57649e-27
-8.84695e-28
-2.69386e-26
-3.1454e-26
7.62149e-26
2.58941e-25
1.02879e-25
-9.27309e-25
-2.21497e-24
-6.73973e-25
7.51421e-24
1.96192e-23
1.74266e-23
-3.035e-23
-1.40357e-22
-2.6491e-22
-2.53546e-22
1.24117e-22
1.06845e-21
2.59126e-21
4.40808e-21
5.98108e-21
6.73052e-21
6.31621e-21
4.82561e-21
2.74862e-21
7.48007e-22
-6.40422e-22
-1.21106e-21
-1.10194e-21
-6.46544e-22
-1.76025e-22
1.16295e-22
2.00259e-22
1.49821e-22
6.08382e-23
-4.05481e-24
-2.79803e-23
-2.34716e-23
-9.96922e-24
2.54417e-25
3.39209e-24
1.46879e-50
-8.61245e-51
8.30211e-50
-3.63811e-49
1.64014e-48
-7.0018e-48
2.84333e-47
-1.09023e-46
3.91232e-46
-1.29641e-45
3.87906e-45
-1.00324e-44
2.00274e-44
-1.66122e-44
-9.78166e-44
6.83354e-43
-2.72007e-42
7.96555e-42
-1.66784e-41
1.61009e-41
5.09006e-41
-3.24591e-40
9.36966e-40
-1.35599e-39
-1.35722e-39
1.38196e-38
-3.76399e-38
3.13846e-38
1.45775e-37
-6.28516e-37
8.3893e-37
1.69559e-36
-9.45731e-36
1.21191e-35
3.01983e-35
-1.36339e-34
8.84256e-35
6.41983e-34
-1.60415e-33
-1.21473e-33
1.09254e-32
-7.17792e-33
-5.31885e-32
9.42493e-32
2.10158e-31
-6.73569e-31
-7.21077e-31
3.96388e-30
2.42589e-30
-2.13846e-29
-1.06925e-29
1.09758e-28
7.33402e-29
-5.31645e-28
-5.95425e-28
2.28998e-27
4.48374e-27
-7.37687e-27
-2.83247e-26
4.35699e-27
1.36678e-25
1.60634e-25
-3.84567e-25
-1.31626e-24
-5.40412e-25
4.67816e-24
1.12798e-23
3.66744e-24
-3.77096e-23
-9.96998e-23
-9.09239e-23
1.47453e-22
7.04122e-22
1.34873e-21
1.33717e-21
-4.78102e-22
-5.10222e-21
-1.26067e-20
-2.15888e-20
-2.93813e-20
-3.3103e-20
-3.10605e-20
-2.36863e-20
-1.34136e-20
-3.53341e-21
3.29828e-21
6.07012e-21
5.47872e-21
3.18776e-21
8.42339e-22
-6.03312e-22
-1.00812e-21
-7.46735e-22
-2.98796e-22
2.47131e-23
1.42053e-22
1.17651e-22
4.9292e-23
-1.8952e-24
-1.71963e-23
-7.06816e-50
4.20389e-50
-4.02507e-49
1.76917e-48
-7.99398e-48
3.4221e-47
-1.39413e-46
5.36638e-46
-1.93524e-45
6.4555e-45
-1.95073e-44
5.13171e-44
-1.06543e-43
1.10981e-43
3.86126e-43
-3.09135e-42
1.27366e-41
-3.80428e-41
8.13011e-41
-8.37121e-41
-2.26346e-40
1.52872e-39
-4.50004e-39
6.69942e-39
5.87183e-39
-6.53617e-38
1.81454e-37
-1.58811e-37
-6.80737e-37
3.01242e-36
-4.12517e-36
-7.87042e-36
4.5328e-35
-5.95342e-35
-1.41782e-34
6.55878e-34
-4.44311e-34
-3.05691e-33
7.76932e-33
5.60682e-33
-5.25332e-32
3.5709e-32
2.54606e-31
-4.58184e-31
-1.00155e-30
3.25809e-30
3.41727e-30
-1.91379e-29
-1.14293e-29
1.03193e-28
5.0462e-29
-5.29734e-28
-3.49746e-28
2.56695e-27
2.86139e-27
-1.10585e-26
-2.16222e-26
3.55865e-26
1.36736e-25
-2.04622e-26
-6.59216e-25
-7.79652e-25
1.84465e-24
6.36064e-24
2.69776e-24
-2.24307e-23
-5.46166e-23
-1.89477e-23
1.79774e-22
4.81719e-22
4.51493e-22
-6.77499e-22
-3.35502e-21
-6.53032e-21
-6.7151e-21
1.51395e-21
2.29446e-20
5.79817e-20
1.00072e-19
1.36672e-19
1.542e-19
1.4466e-19
1.10079e-19
6.19179e-20
1.56757e-20
-1.61638e-20
-2.88888e-20
-2.58397e-20
-1.48924e-20
-3.79839e-21
2.97882e-21
4.82097e-21
3.53181e-21
1.38979e-21
-1.40684e-22
-6.85584e-22
-5.59981e-22
-2.31059e-22
1.22699e-23
8.28652e-23
3.19739e-49
-1.93319e-49
1.83654e-48
-8.09976e-48
3.669e-47
-1.57536e-46
6.43981e-46
-2.48896e-45
9.02132e-45
-3.02949e-44
9.24353e-44
-2.47114e-43
5.31317e-43
-6.49898e-43
-1.35432e-42
1.3108e-41
-5.61849e-41
1.7148e-40
-3.74483e-40
4.10596e-40
9.38547e-40
-6.78717e-39
2.04151e-38
-3.13153e-38
-2.3448e-38
2.91578e-37
-8.26803e-37
7.61061e-37
2.99237e-36
-1.36414e-35
1.92082e-35
3.43428e-35
-2.05287e-34
2.77033e-34
6.27019e-34
-2.98314e-33
2.11824e-33
1.37427e-32
-3.56123e-32
-2.42744e-32
2.3885e-31
-1.68625e-31
-1.15163e-30
2.10979e-30
4.50635e-30
-1.49181e-29
-1.52697e-29
8.74464e-29
5.0682e-29
-4.71253e-28
-2.24107e-28
2.4198e-27
1.57312e-27
-1.17328e-26
-1.29934e-26
5.05669e-26
9.86252e-26
-1.62632e-25
-6.2469e-25
9.14681e-26
3.00993e-24
3.58088e-24
-8.37707e-24
-2.90981e-23
-1.27435e-23
1.01793e-22
2.50404e-22
9.25824e-23
-8.10698e-22
-2.20389e-21
-2.12527e-21
2.92796e-21
1.51183e-20
2.99477e-20
3.19896e-20
-2.9625e-21
-9.64671e-20
-2.50672e-19
-4.36711e-19
-5.98915e-19
-6.76838e-19
-6.3483e-19
-4.81848e-19
-2.68863e-19
-6.47639e-20
7.50759e-20
1.2997e-19
1.1507e-19
6.55962e-20
1.60294e-20
-1.3943e-20
-2.18062e-20
-1.57792e-20
-6.09104e-21
7.48711e-22
3.13239e-21
2.51982e-21
1.02194e-21
-7.14664e-23
-3.77972e-22
-1.34845e-48
8.31534e-49
-7.82585e-48
3.46517e-47
-1.57408e-46
6.78135e-46
-2.78254e-45
1.08016e-44
-3.93601e-44
1.3309e-43
-4.10023e-43
1.11329e-42
-2.47101e-42
3.41418e-42
3.98714e-42
-5.16607e-41
2.31911e-40
-7.24931e-40
1.6202e-39
-1.89014e-39
-3.58854e-39
2.82189e-38
-8.69597e-38
1.3773e-37
8.48665e-38
-1.21895e-36
3.5403e-36
-3.43694e-36
-1.22936e-35
5.80215e-35
-8.4257e-35
-1.39788e-34
8.73414e-34
-1.21496e-33
-2.5938e-33
1.27563e-32
-9.53811e-33
-5.79749e-32
1.53671e-31
9.76999e-32
-1.02114e-30
7.52484e-31
4.8936e-30
-9.15579e-30
-1.90258e-29
6.43247e-29
6.39052e-29
-3.76159e-28
-2.09952e-28
2.02593e-27
9.29498e-28
-1.04071e-26
-6.62969e-27
5.05044e-26
5.54269e-26
-2.17849e-25
-4.23174e-25
7.00699e-25
2.68669e-24
-3.88502e-25
-1.29436e-23
-1.54798e-23
3.58379e-23
1.2537e-22
5.66565e-23
-4.35e-22
-1.08152e-21
-4.25768e-22
3.44015e-21
9.4991e-21
9.43754e-21
-1.18197e-20
-6.40857e-20
-1.29433e-19
-1.43897e-19
-6.02191e-21
3.75457e-19
1.01118e-18
1.78203e-18
2.45622e-18
2.7813e-18
2.60802e-18
1.9735e-18
1.09044e-18
2.46181e-19
-3.28888e-19
-5.49733e-19
-4.81032e-19
-2.70712e-19
-6.27166e-20
6.15714e-20
9.27959e-20
6.62166e-20
2.49918e-20
-3.72028e-21
-1.34791e-20
-1.06614e-20
-4.23915e-21
3.79758e-22
1.62351e-21
5.23936e-48
-3.31263e-48
3.08093e-47
-1.37085e-46
6.2482e-46
-2.70241e-45
1.11364e-44
-4.34438e-44
1.5923e-43
-5.42358e-43
1.68758e-42
-4.65282e-42
1.06372e-41
-1.62036e-41
-8.32443e-42
1.87048e-40
-8.87536e-40
2.85017e-39
-6.53268e-39
8.11107e-39
1.24397e-38
-1.089e-37
3.45044e-37
-5.65938e-37
-2.69485e-37
4.73469e-36
-1.41384e-35
1.45345e-35
4.6744e-35
-2.30019e-34
3.45878e-34
5.25076e-34
-3.46449e-33
4.98944e-33
9.94222e-33
-5.0911e-32
4.03351e-32
2.27662e-31
-6.20023e-31
-3.60855e-31
4.07555e-30
-3.15578e-30
-1.93877e-29
3.72089e-29
7.47681e-29
-2.59462e-28
-2.48258e-28
1.51308e-27
8.04113e-28
-8.144e-27
-3.56239e-27
4.18607e-26
2.59468e-26
-2.03401e-25
-2.20412e-25
8.78588e-25
1.69598e-24
-2.82894e-24
-1.08047e-23
1.5657e-24
5.20828e-23
6.25509e-23
-1.43528e-22
-5.05405e-22
-2.35444e-22
1.73919e-21
4.37212e-21
1.83142e-21
-1.36458e-20
-3.8325e-20
-3.9295e-20
4.41593e-20
2.5382e-19
5.23898e-19
6.0768e-19
1.08854e-19
-1.33328e-18
-3.7678e-18
-6.73798e-18
-9.34551e-18
-1.06083e-17
-9.94427e-18
-7.49641e-18
-4.09131e-18
-8.44935e-19
1.35058e-18
2.17071e-18
1.87349e-18
1.03819e-18
2.2447e-19
-2.54963e-19
-3.68994e-19
-2.59095e-19
-9.5187e-20
1.72028e-20
5.42731e-20
4.21187e-20
1.63646e-20
-1.84979e-21
-6.5239e-21
-1.84132e-47
1.20451e-47
-1.10245e-46
4.937e-46
-2.25992e-45
9.82263e-45
-4.06921e-44
1.59673e-43
-5.89182e-43
2.02325e-42
-6.36289e-42
1.78205e-41
-4.19156e-41
6.9308e-41
1.04999e-42
-6.11401e-40
3.10842e-39
-1.02993e-38
2.42813e-38
-3.21459e-38
-3.79903e-38
3.85196e-37
-1.26142e-36
2.15186e-36
6.98518e-37
-1.68813e-35
5.21191e-35
-5.70808e-35
-1.62172e-34
8.40991e-34
-1.31709e-33
-1.79098e-33
1.26792e-32
-1.90242e-32
-3.48327e-32
1.87773e-31
-1.59023e-31
-8.22959e-31
2.318e-30
1.19821e-30
-1.5038e-29
1.23503e-29
7.08767e-29
-1.4043e-28
-2.70439e-28
9.70476e-28
8.83817e-28
-5.6406e-27
-2.80373e-27
3.03385e-26
1.24172e-26
-1.56084e-25
-9.31144e-26
7.59813e-25
8.08513e-25
-3.28936e-24
-6.2887e-24
1.06184e-23
4.02679e-23
-5.98113e-24
-1.94419e-22
-2.34083e-22
5.33727e-22
1.88988e-21
9.0609e-22
-6.45063e-21
-1.64021e-20
-7.30781e-21
5.01559e-20
1.43523e-19
1.52189e-19
-1.50723e-19
-9.30874e-19
-1.9696e-18
-2.39139e-18
-7.67754e-19
4.21952e-18
1.27802e-17
2.33056e-17
3.25892e-17
3.71096e-17
3.47725e-17
2.6085e-17
1.40071e-17
2.53265e-18
-5.15739e-18
-7.92688e-18
-6.72909e-18
-3.6581e-18
-7.19528e-19
9.82219e-19
1.35866e-18
9.36005e-19
3.3259e-19
-7.36241e-20
-2.02722e-19
-1.53923e-19
-5.81711e-20
8.25313e-21
2.43137e-20
5.66516e-47
-3.90341e-47
3.4877e-46
-1.57674e-45
7.2616e-45
-3.17788e-44
1.32587e-43
-5.24252e-43
1.95092e-42
-6.7658e-42
2.15406e-41
-6.1368e-41
1.48556e-40
-2.64221e-40
1.02836e-40
1.75239e-39
-9.76209e-39
3.3597e-38
-8.18592e-38
1.16082e-37
9.64038e-38
-1.22476e-36
4.18002e-36
-7.4675e-36
-1.1504e-36
5.42369e-35
-1.74684e-34
2.05791e-34
5.01794e-34
-2.79197e-33
4.59525e-33
5.39989e-33
-4.21645e-32
6.65533e-32
1.09156e-31
-6.30933e-31
5.78776e-31
2.69319e-30
-7.92775e-30
-3.44495e-30
5.05838e-29
-4.46781e-29
-2.35497e-28
4.8652e-28
8.85331e-28
-3.32475e-27
-2.82645e-27
1.92435e-26
8.67502e-27
-1.03422e-25
-3.83295e-26
5.32821e-25
3.00403e-25
-2.60091e-24
-2.69364e-24
1.13001e-23
2.12824e-23
-3.66581e-23
-1.3733e-22
2.16464e-23
6.65256e-22
8.00685e-22
-1.82223e-21
-6.4762e-21
-3.18676e-21
2.19358e-20
5.64274e-20
2.67396e-20
-1.68754e-19
-4.93069e-19
-5.42307e-19
4.60817e-19
3.12171e-18
6.79978e-18
8.68165e-18
4.08496e-18
-1.1386e-17
-3.85544e-17
-7.23032e-17
-1.02253e-16
-1.16938e-16
-1.09513e-16
-8.16029e-17
-4.28292e-17
-6.16299e-18
1.81134e-17
2.64151e-17
2.19628e-17
1.16452e-17
1.98809e-18
-3.48223e-18
-4.57353e-18
-3.07818e-18
-1.04748e-18
2.8923e-19
6.9406e-19
5.13548e-19
1.87501e-19
-3.35489e-20
-8.30292e-20
-1.42062e-46
1.0771e-46
-9.2197e-46
4.23871e-45
-1.97231e-44
8.72913e-44
-3.68331e-43
1.4735e-42
-5.55185e-42
1.95195e-41
-6.31526e-41
1.83702e-40
-4.59157e-40
8.76303e-40
-6.51674e-40
-4.15659e-39
2.65159e-38
-9.59436e-38
2.43687e-37
-3.73857e-37
-1.71467e-37
3.38336e-36
-1.22209e-35
2.31443e-35
-1.17156e-36
-1.521e-34
5.19477e-34
-6.69449e-34
-1.32741e-33
8.20587e-33
-1.4416e-32
-1.36422e-32
1.24304e-31
-2.09848e-31
-2.94122e-31
1.88813e-30
-1.91739e-30
-7.76125e-30
2.43221e-29
7.85889e-30
-1.51729e-28
1.47412e-28
6.94024e-28
-1.52083e-27
-2.55073e-27
1.024e-26
7.83711e-27
-5.89394e-26
-2.26557e-26
3.16479e-25
9.93612e-26
-1.63408e-24
-8.41286e-25
8.01114e-24
7.94764e-24
-3.50106e-23
-6.43538e-23
1.14597e-22
4.20409e-22
-7.41852e-23
-2.0495e-21
-2.45289e-21
5.61853e-21
1.99701e-20
1.00344e-20
-6.72061e-20
-1.74874e-19