/*--------------------------------*- C++ -*----------------------------------*\
  =========                 |
  \\      /  F ield         | OpenFOAM: The Open Source CFD Toolbox
   \\    /   O peration     | Website:  https://openfoam.org
    \\  /    A nd           | Version:  13
     \\/     M anipulation  |
\*---------------------------------------------------------------------------*/
FoamFile
{
    format      ascii;
    class       volScalarField;
    location    "2";
    object      T;
}
// * * * * * * * * * * * * * * * * * * * * * * * * * * * * * * * * * * * * * //

dimensions      [0 0 0 1 0 0 0];

internalField   nonuniform List<scalar> 
10000
(
0
0
0
0
0
0
0
0
0
0
0
0
0
0
0
0
0
0
0
0
0
0
0
0
0
0
0
0
0
0
0
0
0
0
0
0
0
0
0
0
0
0
0
0
0
0
0
0
0
0
0
0
0
0
0
0
0
0
0
0
0
0
0
0
0
0
0
0
0
0
0
0
0
0
0
0
0
0
0
0
0
0
0
0
0
0
0
0
0
0
0
0
0
0
0
0
0
0
0
0
0
0
0
0
0
0
0
0
0
0
0
0
0
0
0
0
0
0
0
0
0
0
0
0
0
0
0
0
0
0
0
0
0
0
0
0
0
0
0
0
0
0
0
0
0
0
0
0
0
0
0
0
0
0
0
0
0
0
0
0
0
0
0
0
0
0
0
0
0
0
0
0
0
0
0
0
0
0
0
0
0
0
0
0
0
0
0
0
0
0
0
0
0
0
0
0
0
0
0
0
0
0
0
0
0
0
0
0
0
0
0
0
0
0
0
0
0
0
0
0
0
0
0
0
0
0
0
0
0
0
0
0
0
0
0
0
0
0
0
0
0
0
0
0
0
0
0
0
0
0
0
0
0
0
0
0
0
0
0
0
0
0
0
0
0
0
0
0
0
0
0
0
0
0
0
0
0
0
0
0
0
0
0
0
0
0
0
0
0
0
0
0
0
0
0
0
0
0
0
0
0
0
0
0
0
0
0
0
0
0
0
0
0
0
0
0
0
0
0
0
0
0
0
0
0
0
0
0
0
0
0
0
0
0
0
0
0
0
0
0
0
0
0
0
0
0
0
0
0
0
0
0
0
0
0
0
0
0
0
0
0
0
0
0
0
0
0
0
0
0
0
0
0
0
0
0
0
0
0
0
0
0
0
0
0
0
0
0
0
0
0
0
0
0
0
0
0
0
0
0
0
0
0
0
0
0
0
0
0
0
0
0
0
0
0
0
0
0
0
0
0
0
0
0
0
0
0
0
0
0
0
0
0
0
0
0
0
0
0
0
0
0
0
0
0
0
0
0
0
0
0
0
0
0
0
0
0
0
0
0
0
0
0
0
0
0
0
0
0
0
0
0
0
0
0
0
0
0
0
0
0
0
0
0
0
0
0
0
0
0
0
0
0
0
0
0
0
0
0
0
0
0
0
0
0
0
0
0
0
0
0
0
0
0
0
0
0
0
0
0
0
0
0
0
0
0
0
0
0
0
0
0
0
0
0
0
0
0
0
0
0
0
0
0
0
0
0
0
0
0
0
0
0
0
0
0
0
0
0
0
0
0
0
0
0
0
0
0
0
0
0
0
0
0
0
0
0
0
0
0
0
0
0
0
0
0
0
0
0
0
0
0
0
0
0
0
0
0
0
0
0
0
0
0
0
0
0
0
0
0
0
0
0
0
0
0
0
0
0
0
0
0
0
0
0
0
0
0
0
0
0
0
0
0
0
0
0
0
0
0
0
0
0
0
0
0
0
0
0
0
0
0
0
0
0
0
0
0
0
0
0
0
0
0
0
0
0
0
0
0
0
0
0
0
0
0
0
0
0
0
0
0
0
0
0
0
0
0
0
0
0
0
0
0
0
0
0
0
0
0
0
0
0
0
0
0
0
0
0
0
0
0
0
0
0
0
0
0
0
0
0
0
0
0
0
0
0
0
0
0
0
0
0
0
0
0
0
0
0
0
0
0
0
0
0
0
0
0
0
0
0
0
0
0
0
0
0
0
0
0
0
0
0
0
0
0
0
0
0
0
0
0
0
0
0
0
0
0
0
0
0
0
0
0
0
0
0
0
0
0
0
0
0
0
0
0
0
0
0
0
0
0
0
0
0
0
0
0
0
0
0
0
0
0
0
0
0
0
0
0
0
0
0
0
0
0
0
0
0
0
0
0
0
0
0
0
0
0
0
0
0
0
0
0
0
0
0
0
0
0
0
0
0
0
0
0
0
0
0
0
0
0
0
0
0
0
0
0
0
0
0
0
0
0
0
0
0
0
0
0
0
0
0
0
0
0
0
0
0
0
0
0
0
0
0
0
0
0
0
0
0
0
0
0
0
0
0
0
0
0
0
0
0
0
0
0
0
0
0
0
0
0
0
0
0
0
0
0
0
0
0
0
0
0
0
0
0
0
0
0
0
0
0
0
0
0
0
0
0
0
0
0
0
0
0
0
0
0
0
0
0
0
0
0
0
0
0
0
0
0
0
0
0
0
0
0
0
0
0
0
0
0
0
0
0
0
0
0
0
0
0
0
0
0
0
0
0
0
0
0
0
0
0
0
0
0
0
0
0
0
0
0
0
0
0
0
0
0
0
0
0
0
0
0
0
0
0
0
0
0
0
0
0
0
0
0
0
0
0
0
0
0
0
0
0
0
0
0
0
0
0
0
0
0
0
0
0
0
0
0
0
0
0
0
0
0
0
0
0
0
0
0
0
0
0
0
0
0
0
0
0
0
0
0
0
0
0
0
0
0
0
0
0
0
0
0
0
0
0
0
0
0
0
0
0
0
0
0
0
0
0
0
0
0
0
0
0
0
0
0
0
0
0
0
0
0
0
0
0
0
0
0
0
0
0
0
0
0
0
0
0
0
0
0
0
0
0
0
0
0
0
0
0
0
0
0
0
0
0
0
0
0
0
0
0
0
0
0
0
0
0
0
0
0
0
0
0
0
0
0
0
0
0
0
0
0
0
0
0
0
0
0
0
0
0
0
0
0
0
0
0
0
0
0
0
0
0
0
0
0
0
0
0
0
0
0
0
0
0
0
0
0
0
0
0
0
0
0
0
0
0
0
0
0
0
0
0
0
0
0
0
0
0
0
0
0
0
0
0
0
0
0
0
0
0
0
0
0
0
0
0
0
0
0
0
0
0
0
0
0
0
0
0
0
0
0
0
0
0
0
0
0
0
0
0
0
0
0
0
0
0
0
0
0
0
0
0
0
0
0
0
0
0
0
0
0
0
0
0
0
0
0
0
0
0
0
0
0
0
0
0
0
0
0
0
0
0
0
0
0
0
0
0
0
0
0
0
0
0
0
0
0
0
0
0
0
0
0
0
0
0
0
0
0
0
0
0
0
0
0
0
0
0
0
0
0
0
0
0
0
0
0
0
0
0
0
0
0
0
0
0
0
0
0
0
0
0
0
0
0
0
0
0
0
0
0
0
0
0
0
0
0
0
0
0
0
0
0
0
0
0
0
0
0
0
0
0
0
0
0
0
0
0
0
0
0
0
0
0
0
0
0
0
0
0
0
0
0
0
0
0
0
0
0
0
0
0
0
0
0
0
0
0
0
0
0
0
0
0
0
0
0
0
0
0
0
0
0
0
0
0
0
0
0
0
0
0
0
0
0
0
0
0
0
0
0
0
0
0
0
0
0
0
0
0
0
0
0
0
0
0
0
0
0
0
0
0
0
0
0
0
0
0
0
0
0
0
0
0
0
0
0
0
0
0
0
0
0
0
0
0
0
0
0
0
0
0
0
0
0
0
0
0
0
0
0
0
0
0
0
0
0
0
0
0
0
0
0
0
0
0
0
0
0
0
0
0
0
0
0
0
0
0
0
0
0
0
0
0
0
0
0
0
0
0
0
0
0
0
0
0
0
0
0
0
0
0
0
0
0
0
0
0
0
0
0
0
0
0
0
0
0
0
0
0
0
0
0
0
0
0
0
0
0
0
0
0
0
0
0
0
0
0
0
0
0
0
0
0
0
0
0
0
0
0
0
0
0
0
0
0
0
0
0
0
0
0
0
0
0
0
0
0
0
0
0
0
0
0
0
0
0
0
0
0
0
0
0
0
0
0
0
0
0
0
0
0
0
0
0
0
0
0
0
0
0
0
0
0
0
0
0
0
0
0
0
0
0
0
0
0
0
0
0
0
0
0
0
0
0
0
0
0
0
0
0
0
0
0
0
0
0
0
0
0
0
0
0
0
0
0
0
0
0
0
0
0
0
0
0
0
0
0
0
0
0
0
0
0
0
0
0
0
0
0
0
0
0
0
0
0
0
0
0
0
0
0
0
0
0
0
0
0
0
0
0
0
0
0
0
0
0
0
0
0
0
0
0
0
0
0
0
0
0
0
0
0
0
0
0
0
0
0
0
0
0
0
0
0
0
0
0
0
0
0
0
0
0
0
0
0
0
0
0
0
0
0
0
0
0
0
0
0
0
0
0
0
0
0
0
0
0
0
0
0
0
0
0
0
0
0
0
0
0
0
0
0
0
0
0
0
0
0
0
0
0
0
0
0
0
0
0
0
0
0
0
0
0
0
0
0
0
0
0
0
0
0
0
0
0
0
0
0
0
0
0
0
0
0
0
0
0
0
0
0
0
0
0
0
0
0
0
0
0
0
0
0
0
0
0
0
0
0
0
0
0
0
0
0
0
0
0
0
0
0
0
0
0
0
0
0
0
0
0
0
0
0
0
0
0
0
0
0
0
0
0
0
0
0
0
0
0
0
0
0
0
0
0
0
0
0
0
0
0
0
0
0
0
0
0
0
0
0
0
0
0
0
0
0
0
0
0
0
0
0
0
0
0
0
0
0
0
0
0
0
0
0
0
0
0
0
0
0
0
0
0
0
0
0
0
0
0
0
0
0
0
0
0
0
0
0
0
0
0
0
0
0
0
0
0
0
0
0
0
0
0
0
0
0
0
0
0
0
0
0
0
0
0
0
0
0
0
0
0
0
0
0
0
0
0
0
0
0
0
0
0
0
0
0
0
0
0
0
0
0
0
0
0
0
0
0
0
0
0
0
0
0
0
0
0
0
0
0
0
0
0
0
0
0
0
0
0
0
0
0
0
0
0
0
0
0
0
0
0
0
0
0
0
0
0
0
0
0
0
0
0
0
0
0
0
0
0
0
0
0
0
0
0
0
0
0
0
0
0
0
0
0
0
0
0
0
0
0
0
0
0
0
0
0
0
0
0
0
0
0
0
0
0
0
0
0
0
0
0
0
0
0
0
0
0
0
0
0
0
0
0
0
0
0
0
0
0
0
0
0
0
0
0
0
0
0
0
0
0
0
0
0
0
0
0
0
0
0
0
0
0
0
0
0
0
0
0
0
0
0
0
0
0
0
0
0
0
0
0
0
0
0
0
0
0
0
0
0
0
0
0
0
0
0
0
0
0
0
0
0
0
0
0
0
0
0
0
0
0
0
0
0
0
0
0
0
0
0
0
0
0
0
0
0
0
0
0
0
0
0
0
0
0
0
0
0
0
0
0
0
0
0
0
0
0
0
0
0
0
0
0
0
0
0
0
0
0
0
0
0
0
0
0
0
0
0
0
0
0
0
0
0
0
0
0
0
0
0
0
0
0
0
0
0
0
0
0
0
0
0
0
0
0
0
0
0
0
0
0
0
0
0
0
0
0
0
0
0
0
0
0
0
0
0
0
0
0
0
0
0
0
0
0
0
0
0
0
0
0
0
0
0
0
0
0
0
0
0
0
0
0
0
0
0
0
0
0
0
0
0
0
0
0
0
0
0
0
0
0
0
0
1.18477e-320
-7.13134e-320
3.74714e-319
-1.8318e-319
-9.79668e-319
1.33099e-318
-5.95272e-318
4.50831e-317
-1.89934e-316
4.99759e-316
-4.71849e-316
-2.22905e-315
4.68292e-315
2.86594e-315
-9.39719e-315
6.34928e-314
-3.53258e-313
-1.09933e-314
4.57266e-314
2.69471e-313
3.39437e-313
3.91083e-314
-4.04019e-313
-3.43357e-313
5.52843e-313
1.81269e-313
-1.35153e-313
-1.86786e-313
-9.54939e-314
1.17625e-313
-1.17084e-312
5.08557e-313
5.83602e-313
1.22303e-313
5.47109e-313
-2.82458e-313
-3.16629e-313
-1.25978e-313
6.84818e-314
-5.27763e-314
-4.85271e-314
6.71649e-314
2.00628e-314
6.75849e-314
-6.72071e-314
-7.3448e-315
2.18733e-314
-1.66969e-314
2.23139e-315
2.55799e-315
6.44807e-315
-3.61699e-315
-1.38459e-315
-6.50578e-316
9.09854e-317
2.31085e-316
-5.03487e-317
1.26667e-316
4.37406e-317
-5.73174e-318
-1.05076e-317
-1.22061e-317
5.05343e-318
2.71129e-318
0
0
0
0
0
0
0
0
0
0
0
0
0
4.30825e-321
-8.39912e-323
-3.40362e-320
4.70598e-320
-1.8235e-319
9.38937e-319
-1.04254e-317
5.8831e-317
-1.18177e-316
-9.07135e-316
6.45554e-315
-1.21001e-313
1.27259e-312
-8.02652e-312
5.11005e-311
-3.99744e-310
2.44975e-309
-1.2692e-308
3.56754e-308
-2.14648e-307
4.17282e-307
2.17373e-306
-2.55323e-305
8.40227e-305
-5.17057e-304
1.43321e-304
8.19376e-305
-4.19554e-304
2.69054e-304
-1.21263e-303
8.75448e-303
-3.95194e-302
8.83156e-302
2.001e-301
-4.37034e-300
3.88064e-299
-2.36561e-298
2.82233e-298
2.9084e-298
-1.2242e-298
-2.09482e-298
-1.21088e-298
-4.27613e-299
4.60554e-299
1.28207e-298
-7.04299e-299
-8.85163e-299
9.81024e-299
2.93845e-298
-1.4082e-297
4.14539e-298
1.55585e-297
4.74572e-298
-8.13469e-298
-7.67648e-298
-2.09596e-298
8.50381e-299
3.82916e-298
2.8115e-298
2.48917e-300
-2.42552e-298
-1.31465e-298
5.92105e-299
3.71148e-299
3.71033e-299
1.83857e-299
-2.38599e-299
-5.10355e-299
-1.4849e-299
1.49633e-299
1.29503e-299
5.29332e-300
4.49697e-300
-4.20234e-300
-2.24523e-300
-5.14748e-301
7.88558e-301
4.3336e-301
-1.5905e-301
-2.06122e-301
-5.41725e-302
1.55417e-302
1.9237e-302
9.2729e-303
-1.02405e-302
7.4366e-303
-1.11231e-304
8.05384e-318
-7.12871e-317
5.02362e-316
-2.83052e-315
3.35884e-314
-1.63519e-313
1.83125e-312
-2.18417e-311
6.73921e-311
-2.69362e-309
1.97899e-308
-2.11085e-307
1.1501e-306
-5.97088e-306
1.02154e-306
1.75085e-305
-1.00102e-305
1.30146e-304
-1.00124e-303
6.297e-303
-2.82101e-302
2.53311e-301
-1.61897e-300
8.6278e-300
-2.63537e-299
-1.54794e-298
1.57335e-297
-1.17778e-296
7.76952e-296
-6.38628e-295
2.99275e-294
-2.09043e-293
1.03208e-292
-4.0268e-292
5.08761e-292
1.13152e-290
-7.86558e-290
3.3387e-289
-8.85064e-289
-4.11744e-290
1.86899e-289
6.5716e-290
2.44661e-288
-2.18824e-288
1.63326e-288
6.14004e-288
-1.76471e-286
2.6739e-285
-1.78307e-284
7.91807e-284
-4.63767e-284
-1.09635e-283
-3.01136e-284
4.59999e-284
6.35811e-284
3.35385e-284
4.19521e-284
-2.51097e-283
1.35026e-284
1.2071e-283
4.32396e-284
-1.50039e-283
9.98252e-283
7.63621e-284
-4.79826e-283
-4.41835e-283
-1.55711e-283
-2.78907e-284
1.48748e-283
9.92728e-284
1.12602e-284
-3.2799e-284
-8.41238e-284
3.25497e-284
3.6435e-284
-2.05188e-285
1.82319e-284
-5.22397e-285
-2.54973e-284
-1.67425e-284
2.09889e-285
5.34019e-285
4.02804e-285
1.11097e-285
-7.5971e-287
-1.88993e-285
3.08865e-286
4.92204e-286
4.12353e-286
-1.03864e-286
-2.06932e-286
-7.27662e-287
5.36589e-288
1.74285e-287
8.06412e-288
9.37332e-289
-1.93799e-288
1.07043e-287
-1.27617e-288
-7.61281e-288
-2.27024e-303
4.77461e-302
-3.72575e-301
4.50257e-300
-2.82471e-299
3.25611e-298
-3.87635e-297
2.11095e-296
-2.28194e-295
1.31348e-294
-1.3788e-293
6.3876e-293
-6.30982e-292
6.57069e-291
-4.75345e-291
1.61978e-290
-4.80634e-291
-4.48426e-290
3.67822e-289
-3.45791e-288
3.13704e-287
-7.63163e-287
5.66621e-286
-4.69361e-285
3.64046e-284
-2.66341e-283
-1.797e-283
2.77739e-282
-2.68543e-281
2.56054e-280
-2.30184e-279
5.20159e-279
-3.16362e-278
2.22602e-277
-1.46609e-276
9.14773e-276
1.61067e-275
-1.00827e-274
4.59649e-274
1.89668e-274
-1.89289e-274
-1.18185e-275
-1.87972e-273
1.14972e-272
-2.14098e-273
-1.64846e-272
1.20906e-271
-7.35765e-271
3.37333e-270
-6.82078e-270
-1.6331e-269
6.19839e-269
3.62633e-268
-1.29709e-268
-2.73369e-268
-1.76349e-268
-9.8318e-270
1.10727e-268
8.39974e-269
-3.98511e-268
4.61107e-268
2.98977e-268
-1.78017e-268
-5.38887e-268
7.5081e-268
-1.07633e-267
3.19617e-268
6.51313e-269
8.80598e-269
-1.05218e-268
9.72479e-269
1.28741e-268
6.73349e-269
1.99805e-269
-5.90403e-270
4.16398e-269
-2.47597e-269
-1.96128e-269
-5.24501e-270
1.51594e-270
1.48377e-270
1.37419e-270
1.67057e-271
-2.08865e-271
-2.7546e-271
6.64e-271
1.63225e-272
-2.85469e-271
-2.28454e-271
-8.67091e-272
1.65103e-273
2.3492e-272
-2.42562e-272
4.51901e-273
1.20788e-272
4.27752e-273
2.14095e-272
-1.20428e-272
-7.85662e-273
-9.44775e-274
3.1815e-288
-2.84931e-287
2.91598e-286
-3.06527e-285
3.12392e-284
-3.01864e-283
2.71432e-282
-2.18454e-281
1.417e-280
-1.51042e-279
9.62876e-279
-9.8394e-278
1.02264e-276
-6.97183e-276
3.55811e-275
-1.93431e-275
4.49199e-275
-5.13165e-274
3.57684e-274
2.88504e-273
-2.2484e-272
1.89303e-271
-1.56215e-270
9.76413e-270
-5.29633e-269
2.24024e-268
-1.46088e-267
1.44656e-267
1.61417e-267
-8.64707e-266
1.61301e-264
-1.3274e-263
1.01513e-262
-5.47039e-262
2.02532e-261
-7.82066e-261
4.25161e-260
-1.08466e-259
2.20805e-259
1.26065e-259
-4.012e-259
1.71606e-258
3.4068e-258
-6.46565e-258
-5.75973e-258
4.62643e-259
-1.24842e-257
7.06754e-257
-1.81687e-256
-4.38294e-256
9.58022e-255
-7.01344e-254
1.76888e-253
8.19511e-254
-1.88458e-253
-1.54608e-253
2.84321e-255
-6.31e-254
1.07011e-254
4.95524e-253
1.36864e-253
-6.98887e-254
-9.43487e-253
-8.28707e-253
7.54176e-253
1.33278e-252
2.56256e-253
-3.09952e-253
-5.8656e-253
-4.72017e-253
6.83674e-254
2.16358e-253
1.82764e-253
4.00418e-254
-2.33792e-254
-4.01563e-254
-1.90641e-254
-2.71703e-255
3.97216e-255
2.94148e-255
1.0642e-255
2.73215e-257
-2.93744e-255
1.94434e-255
1.18711e-255
-1.52247e-256
7.4138e-256
-1.30824e-255
-2.03984e-256
2.05131e-256
3.68565e-257
-6.03664e-257
1.51301e-256
1.04653e-256
3.10761e-257
-1.71539e-257
-2.17463e-257
-9.32408e-258
2.94583e-258
1.61819e-258
2.16426e-274
7.63441e-273
-5.41689e-272
6.25286e-271
-7.43966e-270
8.6756e-269
-9.9325e-268
1.11592e-266
-1.22982e-265
7.57022e-265
-7.71414e-264
8.01992e-263
-3.83824e-262
3.59829e-261
-3.50962e-260
3.33041e-259
-1.44515e-258
4.70788e-259
4.91465e-259
-3.48348e-259
4.58977e-258
-3.75547e-257
3.01158e-256
-2.33425e-255
1.74441e-254
-1.2528e-253
8.61084e-253
-5.63291e-252
1.15388e-251
-4.90145e-251
1.67551e-250
2.03965e-251
-1.27749e-248
7.57752e-248
-4.36386e-247
2.33847e-246
-1.12693e-245
2.6675e-245
-9.58796e-245
5.48752e-245
9.18084e-245
-1.04212e-243
-4.68106e-243
3.25544e-242
-5.91713e-242
1.24694e-241
-2.39872e-241
-3.54633e-242
8.48777e-241
8.15794e-241
-3.59922e-240
1.54022e-239
-3.92222e-239
-7.92167e-239
3.82659e-239
-3.76274e-239
8.69542e-239
1.2537e-238
3.29891e-238
-2.76537e-238
-5.49981e-238
-3.28328e-238
3.40369e-238
5.54293e-238
1.87108e-238
-1.0748e-238
-2.13917e-238
-1.40141e-238
-6.17319e-239
7.84026e-239
7.52423e-239
2.75689e-239
-8.53645e-241
-1.04538e-239
-8.35736e-240
-3.50643e-240
-4.56662e-241
4.7926e-241
4.1313e-241
1.70815e-241
1.70904e-242
2.9654e-241
-3.20872e-240
1.35091e-240
1.22744e-240
1.57941e-240
-6.96158e-242
-5.73015e-241
-6.4059e-241
-1.58342e-241
7.53884e-242
7.90711e-242
5.20271e-242
-6.72805e-243
-1.52579e-242
-7.42464e-243
-1.16521e-243
9.32589e-244
-6.14697e-244
4.47833e-244
1.08425e-258
-5.09451e-258
4.50011e-257
-1.79192e-256
-2.16415e-255
6.20142e-254
-7.18776e-253
7.28637e-252
-6.43837e-251
6.74593e-250
-5.3896e-249
4.84615e-248
-4.26597e-247
3.09385e-246
-2.40259e-245
1.84762e-244
-1.33436e-243
7.33295e-243
-2.48587e-242
1.1947e-241
-7.33479e-241
4.09757e-240
-1.82313e-239
-5.53114e-239
2.64906e-239
1.34591e-238
2.588e-238
-2.61901e-237
1.80886e-236
-7.91588e-236
2.84057e-235
-6.6957e-235
1.88807e-235
3.93831e-233
-2.61609e-232
8.45634e-232
-2.22993e-231
6.14129e-231
-1.33835e-230
-2.15517e-230
2.17099e-229
-8.49821e-229
1.83625e-229
4.66535e-228
-4.08363e-228
3.54326e-228
7.25693e-227
-4.00823e-226
3.14202e-225
-2.40258e-224
3.00763e-225
4.31085e-224
5.66859e-225
-2.8614e-224
-2.30323e-225
-5.36084e-224
-5.90572e-224
7.10967e-224
1.67427e-223
9.30877e-224
-9.37012e-224
-1.6041e-223
-1.1817e-223
2.96129e-224
7.59396e-224
9.16203e-224
2.17199e-224
-1.38384e-224
-3.8307e-224
-2.43854e-224
-2.36521e-225
2.92019e-225
-1.89938e-226
6.7816e-225
5.57305e-225
3.76588e-225
-1.37145e-225
-1.0261e-224
2.0373e-225
4.54708e-225
4.27964e-225
-8.12505e-226
-2.49701e-225
-1.48382e-225
-5.63503e-226
1.29751e-226
6.8593e-226
2.85448e-226
5.49267e-228
-8.91935e-227
-7.0673e-227
-2.12196e-227
1.27926e-227
1.69202e-227
6.07939e-228
-1.47579e-228
-3.98838e-228
-3.14443e-228
1.17144e-229
1.0178e-228
-8.2315e-244
3.39884e-243
-3.91225e-242
4.57089e-241
-3.94837e-240
8.89868e-241
1.40951e-238
-1.57779e-237
1.66704e-236
-1.81539e-235
1.22652e-234
-1.1875e-233
1.15603e-232
-1.0977e-231
8.11824e-231
-7.25351e-230
4.84572e-229
-4.098e-228
1.68347e-227
-4.93789e-227
3.65706e-226
-2.82728e-225
2.09571e-224
9.64703e-224
-3.07599e-224
-6.91627e-224
1.07621e-223
-4.48215e-223
-3.37649e-222
1.57835e-221
-6.69285e-221
2.26477e-220
-4.43749e-219
-7.00115e-219
5.26219e-218
-3.01795e-217
-1.3902e-217
2.96333e-216
-4.36841e-216
4.96957e-215
-2.30323e-214
8.54652e-214
-8.79405e-214
1.90161e-213
-5.07989e-213
4.58142e-213
9.2646e-212
-2.16972e-211
-2.87623e-210
3.97806e-210
4.85451e-210
-2.07926e-209
9.26539e-210
5.79659e-210
-2.49412e-209
2.09768e-209
6.73049e-209
2.5895e-209
-3.83502e-209
-7.50702e-209
-5.28579e-209
1.04272e-209
3.80337e-209
4.10819e-209
2.49006e-209
-9.47553e-210
-7.33211e-210
-1.96605e-209
-5.34133e-210
9.91919e-212
-1.39324e-210
2.19814e-210
4.54893e-210
8.51457e-211
-4.1376e-211
-4.65712e-210
-2.22896e-210
5.33932e-210
1.70825e-210
-4.87231e-211
-6.27464e-211
-7.67594e-211
-3.78607e-211
-1.75445e-211
4.41394e-211
2.80796e-211
2.13978e-212
-6.87238e-213
-3.78255e-212
-1.75003e-212
2.56585e-214
5.92659e-213
7.87841e-213
-8.40318e-214
-2.42063e-213
-2.27976e-213
-1.12893e-213
6.03793e-214
8.09995e-214
1.53391e-214
-6.889e-229
4.14786e-228
-3.24004e-227
2.88874e-226
-3.20882e-225
2.87895e-224
-2.3761e-223
9.99416e-223
-1.93421e-222
-1.39987e-220
2.24356e-219
-1.45879e-218
6.29965e-218
-4.64105e-217
5.3406e-216
-3.51575e-215
1.79197e-214
-1.31299e-213
1.81596e-212
-8.42023e-212
5.22022e-211
-3.26766e-210
2.77712e-209
-1.59896e-208
1.06057e-207
-4.34788e-207
1.0513e-206
-7.27784e-208
3.12307e-205
2.76e-207
-5.10844e-205
9.28051e-205
-4.38212e-204
1.81393e-204
-5.37019e-203
3.83488e-202
-7.58168e-202
3.40639e-201
-1.39648e-200
2.44411e-200
-4.79291e-200
2.96534e-199
-2.19015e-199
2.56864e-199
-4.24823e-198
2.28324e-197
-3.39157e-197
-2.11946e-196
2.08003e-195
-4.39861e-195
-2.8354e-195
1.24289e-194
6.45243e-195
-9.01353e-195
-1.68624e-194
-7.31988e-195
7.45317e-195
1.4476e-194
9.68834e-195
9.96802e-196
-7.64964e-195
-2.68265e-195
-1.18038e-194
-4.18934e-195
7.14968e-195
-4.5239e-195
1.37957e-194
-6.17475e-195
2.81482e-195
2.91409e-195
-3.4785e-195
-2.51405e-195
1.99832e-195
3.10641e-195
2.21364e-195
-6.00583e-195
4.16748e-195
1.12888e-195
-2.37389e-195
-6.84633e-196
1.84232e-195
-7.33554e-196
-1.39259e-195
-5.73375e-196
7.02822e-197
5.04626e-196
1.80071e-196
2.03227e-197
-2.29221e-197
-3.5076e-197
-2.10765e-198
4.69656e-198
4.58322e-198
5.25705e-198
3.32709e-198
-5.41855e-199
-1.58276e-198
-7.44385e-199
-6.88515e-200
9.65209e-200
-2.42285e-214
1.77816e-213
-1.65362e-212
1.83534e-211
-1.48386e-210
1.57417e-209
-1.66881e-208
1.73131e-207
-1.75883e-206
1.74861e-205
-1.70033e-204
1.61608e-203
2.02235e-203
-2.60538e-202
-2.82242e-201
2.64337e-200
-3.19606e-200
1.68856e-198
-1.40051e-197
2.19571e-197
-1.33935e-196
-1.01243e-195
7.64287e-195
-1.50904e-195
-5.49362e-193
3.46957e-192
-1.30065e-191
7.08787e-191
-3.69087e-190
4.36046e-191
-1.82466e-190
1.10843e-189
-3.22605e-189
5.54619e-189
-5.5717e-188
2.89584e-187
-1.27926e-186
2.97129e-186
-3.70733e-186
5.04448e-186
-2.4634e-185
1.33717e-184
1.03398e-184
-1.59806e-183
1.00254e-182
-2.0036e-182
-1.08102e-182
2.52891e-181
-1.07241e-180
1.33864e-180
3.02512e-180
-5.14814e-180
-2.13458e-180
-1.31024e-180
1.94053e-180
1.21568e-179
-4.34596e-181
-6.43605e-180
-1.73142e-179
5.80885e-180
5.4445e-180
-1.56363e-179
4.6291e-180
2.00745e-179
1.8176e-179
-2.08377e-180
-1.13857e-179
-1.36347e-179
-5.34046e-180
1.32759e-180
4.10954e-180
4.12659e-180
1.39207e-180
-4.24042e-181
-1.79113e-180
3.85897e-180
-5.28424e-180
-1.5463e-180
3.08499e-180
1.52321e-180
-1.38605e-180
5.78015e-181
-1.30042e-180
5.16794e-181
2.99582e-181
6.8912e-184
1.0667e-181
-4.79808e-182
-4.29161e-182
1.72013e-182
1.17448e-182
-1.39117e-182
-8.09315e-183
-3.00235e-183
1.31261e-184
5.66897e-184
2.06465e-184
7.83778e-187
-2.43306e-185
-3.8859e-185
1.26053e-199
-8.95235e-199
1.01249e-197
-1.21529e-196
1.10457e-195
-1.5415e-194
1.61945e-193
-1.64337e-192
2.18787e-191
-1.58614e-190
2.03416e-189
-1.91693e-188
9.63361e-188
-1.1411e-186
7.50335e-186
-4.22847e-185
3.38191e-184
-1.67251e-183
1.91507e-182
-1.03333e-181
4.50785e-181
-3.06572e-180
1.09975e-179
-1.23449e-178
5.1163e-178
-1.58351e-177
8.6572e-177
-1.7654e-176
1.93936e-175
-4.66133e-175
5.70904e-175
9.97647e-175
-2.15548e-175
-1.16085e-173
-1.02645e-173
1.14588e-172
-3.41174e-172
8.42794e-172
1.64693e-172
-1.57229e-170
5.89953e-170
-1.50388e-170
-5.68864e-170
6.64938e-169
-3.83646e-168
9.78808e-169
1.30561e-167
-7.27597e-167
2.67306e-166
-1.98412e-166
-2.26577e-165
6.98672e-166
2.62683e-165
2.85104e-165
-1.51008e-165
-8.33452e-165
-4.52254e-165
5.89077e-165
1.26841e-164
5.06517e-165
-2.14938e-165
-1.08456e-164
-8.36277e-165
-1.11725e-165
4.31545e-165
5.14418e-165
2.71337e-165
-1.0317e-166
-1.47732e-165
-1.55672e-165
1.64113e-165
-1.43803e-164
1.50975e-164
-2.30796e-165
9.81024e-165
-3.48423e-166
-4.42748e-165
-4.50531e-165
-3.38026e-165
6.43256e-166
2.43231e-165
1.64328e-165
-8.25114e-166
-6.47517e-166
-4.6723e-166
-5.85886e-167
1.92996e-166
1.3327e-166
4.43316e-167
-1.56478e-167
-2.24527e-167
-7.4604e-168
1.92899e-168
1.78298e-168
7.46297e-169
-9.71249e-170
-2.50113e-169
-1.49111e-170
-4.99288e-170
-1.8416e-170
3.4751e-186
-1.07266e-185
-2.31028e-183
4.82957e-182
-8.69165e-181
1.15688e-179
-1.18899e-178
1.24854e-177
-1.28127e-176
1.25072e-175
-1.06724e-174
8.69654e-174
-7.2792e-173
5.61663e-172
-4.39422e-171
3.3364e-170
-2.28489e-169
1.49981e-168
-9.45823e-168
6.2522e-167
-3.97913e-166
2.16499e-165
-1.24482e-164
5.93271e-164
-3.02457e-163
1.44125e-162
-6.23961e-162
2.50783e-161
-8.74363e-161
2.66225e-160
-6.6052e-160
6.94735e-160
3.52912e-159
-2.52937e-158
1.02715e-157
-3.19427e-157
8.54938e-157
-1.42469e-156
-1.20658e-156
9.91225e-156
-3.39071e-155
5.64511e-155
2.62557e-155
-7.26975e-154
2.30451e-153
-3.13492e-153
-1.21913e-152
9.60919e-152
-1.88401e-151
-2.7528e-151
1.34756e-150
2.18062e-151
-1.65419e-150
-1.84523e-150
-5.62645e-152
2.57171e-150
3.4524e-150
8.11564e-151
-1.91859e-150
-3.57926e-150
-3.90086e-150
-3.435e-151
3.61299e-151
8.5462e-151
3.77338e-150
3.73801e-150
9.48551e-150
1.36406e-149
-1.64472e-149
-2.65269e-149
-1.03627e-149
1.013e-149
2.12594e-149
1.08087e-149
-3.96853e-150
-9.3815e-150
-5.66181e-150
-2.66579e-151
2.91676e-150
2.2186e-150
1.42749e-151
-8.65086e-151
-6.63965e-151
-1.74523e-151
1.04855e-151
1.40658e-151
5.72752e-152
-7.87361e-153
-1.98711e-152
-9.64909e-153
-6.55878e-153
6.3851e-153
3.00336e-153
3.30081e-154
-9.53927e-154
-6.3646e-154
-1.44793e-154
1.45716e-154
1.17967e-154
9.85122e-156
-2.04825e-169
2.6334e-169
-2.3963e-168
2.5555e-167
-2.63017e-166
8.28021e-166
-7.20859e-165
6.95809e-164
-6.50111e-163
-1.08112e-161
1.05711e-160
-8.48571e-160
7.28949e-159
-6.67882e-158
5.48272e-157
-3.99693e-156
2.79362e-155
-1.87349e-154
1.19984e-153
-8.34985e-153
5.63312e-152
-3.18868e-151
1.9708e-150
-9.98966e-150
5.60285e-149
-2.98659e-148
1.22122e-147
-5.57656e-147
1.7743e-146
-4.29451e-146
1.05575e-145
8.77271e-146
-1.63678e-144
7.95279e-144
-3.87303e-143
7.00404e-143
-2.19674e-142
5.19835e-142
6.01429e-142
-2.91029e-141
6.70355e-141
-9.17785e-141
-3.95104e-142
1.34833e-139
-2.00774e-139
2.40164e-139
1.35375e-138
-1.12494e-137
1.66447e-137
6.79517e-137
-1.54373e-136
-1.53898e-136
2.08003e-136
1.51009e-136
2.06198e-136
9.12751e-137
-2.14732e-136
-3.88979e-137
-5.34258e-136
-5.185e-136
1.1121e-136
1.99796e-136
5.47475e-136
2.29503e-135
9.37839e-136
2.56817e-135
-5.56802e-135
-1.11489e-134
-5.07424e-135
7.4544e-135
9.91538e-135
6.1133e-135
-4.45041e-136
-4.29265e-135
-3.12683e-135
-8.56031e-136
6.64313e-136
7.29289e-136
2.02852e-136
-1.35329e-136
-1.97382e-136
-8.07415e-137
1.93984e-137
3.56301e-137
1.90938e-137
2.94012e-138
-4.22947e-138
-3.39735e-138
-8.70002e-139
-3.63093e-139
4.03769e-138
-5.41906e-139
-1.41056e-138
-8.06726e-139
-1.91004e-139
5.10324e-140
6.22046e-140
2.13679e-140
-1.33693e-141
-3.98898e-141
-1.2566e-154
8.03988e-154
3.71436e-153
-4.46914e-152
-4.1063e-151
4.48722e-150
-4.31289e-149
4.0803e-148
-3.77008e-147
-3.66284e-148
1.83827e-146
-1.46735e-145
1.23883e-144
-1.01368e-143
8.06374e-143
-6.22803e-142
4.66406e-141
-3.38158e-140
2.36952e-139
-1.60143e-138
1.0414e-137
-6.49717e-137
3.87484e-136
-2.1988e-135
1.17979e-134
-5.93288e-134
2.75856e-133
-1.1588e-132
4.1968e-132
-1.15221e-131
9.96976e-132
1.28853e-130
-1.06353e-129
6.30334e-129
-2.22368e-128
5.81055e-128
-9.01901e-128
1.37741e-127
4.65573e-127
-1.98589e-126
2.72559e-126
-7.26852e-127
-1.16669e-125
3.4124e-125
-4.12329e-125
1.95458e-124
4.68997e-125
1.69208e-123
-1.19275e-123
-3.05215e-122
3.03184e-122
8.2801e-122
-1.80848e-122
-1.26885e-121
-1.11601e-121
8.30724e-122
1.31251e-121
3.51152e-121
2.73962e-121
-3.34444e-122
-1.17851e-120
-1.347e-120
-1.77675e-120
1.28608e-120
4.60706e-120
5.17838e-120
1.13292e-120
-4.26765e-120
-6.39287e-120
-2.746e-120
4.78825e-121
2.07436e-120
1.79829e-120
7.80915e-121
1.76162e-122
-2.14013e-121
-1.28083e-121
-1.16668e-123
4.64878e-122
3.08199e-122
3.44736e-123
-8.84481e-123
-7.31928e-123
-2.08565e-123
8.88332e-124
1.19547e-123
5.06515e-124
-1.6855e-125
-8.83377e-125
-4.47271e-124
1.84483e-123
-6.44234e-124
-8.22476e-123
-9.32294e-123
9.06676e-123
6.59202e-123
4.01834e-123
-1.28665e-123
-1.39934e-123
-3.20652e-124
-5.64814e-139
2.76294e-138
-1.95479e-137
1.93284e-136
-1.62763e-135
1.44323e-134
-1.25691e-133
9.63695e-133
-7.73994e-132
6.01366e-131
-5.13349e-130
3.22268e-129
-1.65992e-128
1.28372e-127
-4.50526e-127
3.18127e-126
-1.47145e-125
1.0063e-124
-6.85629e-124
3.56568e-123
-1.64401e-122
6.3368e-122
-3.62074e-121
2.00772e-120
-4.62703e-120
-6.22294e-120
9.74113e-119
-3.63317e-118
1.11847e-117
-1.53774e-117
-5.21888e-117
6.53421e-116
-3.54688e-115
1.5201e-114
-5.24489e-114
1.74634e-113
-3.97019e-113
6.51514e-114
2.71183e-112
-1.18395e-111
2.37571e-111
6.54033e-112
-1.66845e-110
4.71001e-110
-6.0574e-110
-1.77679e-109
9.1981e-109
-1.31865e-108
-2.42245e-108
9.19064e-108
-2.16913e-108
-2.47639e-107
-2.4114e-108
5.30232e-107
8.10115e-107
-8.10519e-107
-2.68998e-106
-1.42526e-106
3.25177e-106
6.22726e-106
2.02476e-106
-7.79775e-106
-1.4546e-105
-9.69917e-106
2.59797e-106
1.65223e-105
1.896e-105
9.00045e-106
-5.11238e-106
4.30088e-106
-4.91681e-106
-4.37519e-105
-9.47774e-106
1.18736e-105
3.12469e-105
2.02573e-105
-5.71002e-106
-1.78621e-105
-1.07956e-105
9.02442e-109
1.13407e-105
6.99772e-106
-7.9782e-106
-9.0022e-106
-2.77554e-106
3.99452e-106
4.45872e-106
1.67959e-106
6.87129e-107
-1.42752e-106
-8.68199e-107
-2.61292e-107
1.77534e-107
1.72418e-107
7.01694e-108
-9.93583e-110
-3.49043e-108
-1.92322e-108
-2.64715e-109
4.08104e-109
1.70798e-124
-1.02183e-123
6.74323e-123
-6.48387e-122
2.66339e-121
-2.34843e-120
2.18418e-119
-1.97173e-118
1.73708e-117
-2.8245e-116
2.41664e-115
-1.03712e-114
7.86462e-114
-6.08211e-113
2.73215e-112
-1.91978e-111
4.92895e-111
-3.10468e-110
2.06563e-109
-1.30209e-108
7.88956e-108
-4.57404e-107
2.52787e-106
-1.32519e-105
6.54655e-105
-1.67582e-104
4.24763e-104
3.43057e-104
-5.48671e-104
8.2236e-105
8.67007e-103
-7.18973e-102
3.92618e-101
-1.7029e-100
-2.56718e-100
-1.91538e-99
3.05164e-99
3.04292e-99
-3.77072e-98
1.52743e-97
-2.65591e-97
-4.78566e-97
2.8614e-96
-5.76382e-96
-2.11735e-96
3.3966e-95
-1.17688e-94
1.08529e-94
7.84314e-94
-2.70018e-93
-2.0821e-93
1.08159e-92
6.46349e-93
-1.35778e-92
-2.57568e-92
-5.32089e-93
3.71619e-92
5.32372e-92
8.42073e-93
-6.56465e-92
-8.76618e-92
-8.23946e-93
1.35291e-91
2.16572e-91
2.08689e-91
1.86983e-91
-1.41914e-90
8.88269e-91
2.00006e-91
-1.51968e-90
-1.32782e-90
1.0336e-90
1.88454e-90
9.52089e-91
-2.21982e-91
-7.93827e-91
-3.85502e-91
-3.41544e-92
1.31132e-91
2.36448e-91
-5.35828e-91
-7.39338e-91
1.77332e-91
4.25666e-91
3.95062e-91
2.59993e-91
1.29754e-92
-1.61053e-91
-1.0733e-91
-4.4131e-92
1.3287e-92
1.90363e-92
8.61695e-93
1.86414e-93
-2.03214e-93
-1.46364e-93
-3.63637e-94
1.11798e-94
1.34823e-94
3.01137e-95
-1.45949e-109
8.42144e-109
-1.03058e-107
8.15786e-107
-6.70347e-106
6.15905e-105
-4.0383e-104
3.48893e-103
-3.00047e-102
2.91483e-101
-2.08314e-100
1.40413e-99
-7.30438e-99
4.06592e-98
-2.06585e-97
1.93347e-96
-1.32546e-95
6.89105e-95
-2.26036e-94
1.32969e-93
-7.75692e-93
3.28658e-92
-1.32013e-91
3.23745e-91
-1.51278e-90
6.59294e-90
-2.28353e-89
6.75516e-89
-1.26012e-88
1.77423e-88
1.40119e-87
-1.25433e-86
5.3978e-86
-1.92363e-85
6.24409e-85
-1.28336e-84
1.12402e-84
4.38481e-84
-1.94068e-83
3.17523e-83
5.82412e-84
-1.91992e-82
1.01683e-81
-1.18799e-81
-2.08243e-81
6.60049e-81
1.20439e-83
-1.43338e-80
-2.17162e-79
3.30804e-79
9.82181e-79
-1.42319e-78
-6.14446e-79
7.79869e-79
-5.43623e-78
-5.0791e-78
2.31422e-77
5.22333e-77
-5.076e-78
-1.54307e-76
-2.51012e-76
-4.54786e-77
3.49092e-76
8.58714e-76
4.1247e-76
-6.15977e-76
-1.35233e-75
-1.40605e-75
-1.47536e-76
1.07716e-75
1.3741e-75
5.62585e-76
1.3977e-76
-1.05567e-76
-2.46498e-76
2.10361e-76
-1.81524e-76
-5.00208e-76
-7.93442e-76
-4.53233e-76
1.23494e-76
5.00558e-76
5.51496e-76
2.87381e-76
2.61824e-78
-1.19322e-76
-1.20667e-76
-5.1167e-77
2.66729e-78
1.91663e-77
1.38136e-77
2.88823e-78
-1.18283e-78
-1.89141e-78
-8.13899e-79
-5.60584e-80
2.07799e-79
1.1406e-79
1.77277e-80
-1.43471e-80
-7.19704e-95
4.12127e-94
-4.27835e-93
4.12359e-92
-4.00126e-91
3.42722e-90
-2.91784e-89
2.3465e-88
-1.82658e-87
1.3767e-86
-1.04485e-85
7.70583e-85
-5.74749e-84
3.81061e-83
-2.28884e-82
1.37354e-81
-7.84768e-81
4.57496e-80
-2.5548e-79
1.10823e-78
-4.47782e-78
1.78659e-77
-7.49195e-77
2.84436e-76
-3.07009e-76
1.27849e-75
-4.54522e-75
1.17363e-74
-2.44447e-74
-5.34883e-75
3.33506e-73
-1.94767e-72
9.15991e-72
-3.14171e-71
8.05734e-71
-1.22716e-70
-3.19964e-71
9.06582e-70
-3.6663e-69
5.63538e-69
1.36926e-68
-1.00524e-67
2.33445e-67
-9.69037e-68
-1.4115e-66
3.82158e-66
-1.04091e-67
-2.28093e-65
4.47218e-65
5.93375e-65
-2.25909e-64
-2.26782e-64
5.49114e-64
1.6147e-63
-1.64171e-63
-6.44745e-63
2.55059e-64
1.84774e-62
2.20371e-62
-1.12644e-62
-8.7831e-62
-1.07204e-61
-2.34869e-62
1.17645e-61
2.17466e-61
2.40446e-61
-5.15345e-62
-4.97475e-61
-1.72111e-61
1.83348e-62
-1.98318e-61
-3.52896e-61
-5.10303e-62
-7.87224e-62
5.84816e-61
9.7158e-61
8.8696e-61
1.76326e-61
-4.00171e-61
-6.0225e-61
-5.3593e-61
-2.71829e-61
-1.36083e-62
9.3497e-62
8.75344e-62
4.23633e-62
5.72008e-63
-1.00628e-62
-9.37072e-63
-3.84559e-63
6.59476e-65
1.03216e-63
6.80535e-64
1.68084e-64
-6.73622e-65
-8.09534e-65
-3.2182e-65
1.50319e-66
8.41062e-66
2.51683e-66
-5.91832e-81
3.15357e-80
-3.04652e-79
2.81537e-78
4.33107e-77
-4.11708e-76
3.51363e-75
-2.9428e-74
2.39894e-73
-1.90236e-72
1.46608e-71
-1.09686e-70
7.95752e-70
-5.59091e-69
3.7989e-68
-2.49245e-67
1.57625e-66
-9.58945e-66
5.5994e-65
-2.4427e-64
1.29512e-63
-6.58736e-63
3.15973e-62
-1.42669e-61
-1.36158e-63
-7.32298e-62
3.15362e-61
-7.56908e-61
1.34552e-60
2.15956e-60
-3.25611e-59
1.84118e-58
-7.52387e-58
2.39878e-57
-5.73982e-57
8.07369e-57
6.51963e-57
-7.59786e-56
1.96705e-55
1.85715e-56
-2.03391e-54
7.67409e-54
-1.03956e-53
-2.50849e-53
1.40231e-52
-1.25397e-52
-9.37121e-52
2.17943e-51
1.36827e-51
-1.69324e-50
1.20349e-50
3.01009e-50
8.942e-50
-3.4535e-49
-2.90678e-50
6.89352e-49
9.44959e-49
-1.31511e-48
-2.27348e-48
-5.01153e-48
5.9957e-48
2.50632e-47
2.04234e-47
-7.31228e-47
-1.15714e-46
-9.98867e-47
-4.64996e-47
1.96512e-46
-2.61977e-46
-2.01914e-47
1.29935e-46
2.5123e-46
2.57733e-46
2.97683e-46
1.08284e-46
-8.36708e-47
-1.48828e-46
-2.27344e-46
-1.74187e-46
-8.417e-47
6.3989e-48
1.75816e-47
1.71077e-47
9.64819e-48
2.60099e-48
-9.58941e-49
-1.56361e-48
-9.06789e-49
-2.18598e-49
9.52996e-50
1.23652e-49
6.43756e-50
1.34058e-52
-1.29003e-50
-7.1486e-51
-1.20623e-51
1.59515e-51
6.82251e-52
-3.61051e-52
-5.20178e-53
1.13319e-64
-5.78521e-64